Gly.e+-localize-molden.E-.fchk                                                                      
        SP                           RHF                        6-311G
Number of electrons                        I               38
Number of alpha electrons                  I               19
Number of beta electrons                   I               19
Number of atoms                            I                8
Number of basis functions                  I               74
Number of independent functions            I               74
Atomic numbers                             I   N=           8
           7           6           6           8           8           1
           1           1
Current cartesian coordinates              R   N=          24
  1.75582000E+00  1.23132656E+00  4.87473716E-01  1.69565113E-01 -8.35296681E-01
  1.55176739E+00  1.77936599E-01 -7.48520464E-01  4.45100390E+00  1.49694644E+00
  8.96315933E-01  5.43007093E+00 -1.14853766E+00 -2.35919061E+00  5.47066225E+00
  3.58004809E+00  1.01340336E+00  9.83337815E-01  9.22299666E-01 -2.61247059E+00
  8.88927105E-01 -1.72868354E+00 -6.05808357E-01  8.41778441E-01
Shell types                                I   N=          44
           0           0           1           0           1           0
           1           0           0           1           0           1
           0           1           0           0           1           0
           1           0           1           0           0           1
           0           1           0           1           0           0
           1           0           1           0           1           0
           0           0           0           0           0           0
           0           0
Shell to atom map                          I   N=          44
           1           1           1           1           1           1
           1           2           2           2           2           2
           2           2           3           3           3           3
           3           3           3           4           4           4
           4           4           4           4           5           5
           5           5           5           5           5           6
           6           6           7           7           7           8
           8           8
Coordinates of each shell                  R   N=         132
  1.75582000E+00  1.23132656E+00  4.87473716E-01  1.75582000E+00  1.23132656E+00
  4.87473716E-01  1.75582000E+00  1.23132656E+00  4.87473716E-01  1.75582000E+00
  1.23132656E+00  4.87473716E-01  1.75582000E+00  1.23132656E+00  4.87473716E-01
  1.75582000E+00  1.23132656E+00  4.87473716E-01  1.75582000E+00  1.23132656E+00
  4.87473716E-01  1.69565113E-01 -8.35296681E-01  1.55176739E+00  1.69565113E-01
 -8.35296681E-01  1.55176739E+00  1.69565113E-01 -8.35296681E-01  1.55176739E+00
  1.69565113E-01 -8.35296681E-01  1.55176739E+00  1.69565113E-01 -8.35296681E-01
  1.55176739E+00  1.69565113E-01 -8.35296681E-01  1.55176739E+00  1.69565113E-01
 -8.35296681E-01  1.55176739E+00  1.77936599E-01 -7.48520464E-01  4.45100390E+00
  1.77936599E-01 -7.48520464E-01  4.45100390E+00  1.77936599E-01 -7.48520464E-01
  4.45100390E+00  1.77936599E-01 -7.48520464E-01  4.45100390E+00  1.77936599E-01
 -7.48520464E-01  4.45100390E+00  1.77936599E-01 -7.48520464E-01  4.45100390E+00
  1.77936599E-01 -7.48520464E-01  4.45100390E+00  1.49694644E+00  8.96315933E-01
  5.43007093E+00  1.49694644E+00  8.96315933E-01  5.43007093E+00  1.49694644E+00
  8.96315933E-01  5.43007093E+00  1.49694644E+00  8.96315933E-01  5.43007093E+00
  1.49694644E+00  8.96315933E-01  5.43007093E+00  1.49694644E+00  8.96315933E-01
  5.43007093E+00  1.49694644E+00  8.96315933E-01  5.43007093E+00 -1.14853766E+00
 -2.35919061E+00  5.47066225E+00 -1.14853766E+00 -2.35919061E+00  5.47066225E+00
 -1.14853766E+00 -2.35919061E+00  5.47066225E+00 -1.14853766E+00 -2.35919061E+00
  5.47066225E+00 -1.14853766E+00 -2.35919061E+00  5.47066225E+00 -1.14853766E+00
 -2.35919061E+00  5.47066225E+00 -1.14853766E+00 -2.35919061E+00  5.47066225E+00
  3.58004809E+00  1.01340336E+00  9.83337815E-01  3.58004809E+00  1.01340336E+00
  9.83337815E-01  3.58004809E+00  1.01340336E+00  9.83337815E-01  9.22299666E-01
 -2.61247059E+00  8.88927105E-01  9.22299666E-01 -2.61247059E+00  8.88927105E-01
  9.22299666E-01 -2.61247059E+00  8.88927105E-01 -1.72868354E+00 -6.05808357E-01
  8.41778441E-01 -1.72868354E+00 -6.05808357E-01  8.41778441E-01 -1.72868354E+00
 -6.05808357E-01  8.41778441E-01
Number of primitives per shell             I   N=          44
           6           3           3           1           1           1
           1           6           3           3           1           1
           1           1           6           3           3           1
           1           1           1           6           3           3
           1           1           1           1           6           3
           3           1           1           1           1           3
           1           1           3           1           1           3
           1           1
Primitive exponents                        R   N=          95
  6.29348000E+03  9.49044000E+02  2.18776000E+02  6.36916000E+01  1.88282000E+01
  2.72023000E+00  3.06331000E+01  7.02614000E+00  2.11205000E+00  3.06331000E+01
  7.02614000E+00  2.11205000E+00  6.84009000E-01  6.84009000E-01  2.00878000E-01
  2.00878000E-01  4.56324000E+03  6.82024000E+02  1.54973000E+02  4.44553000E+01
  1.30290000E+01  1.82773000E+00  2.09642000E+01  4.80331000E+00  1.45933000E+00
  2.09642000E+01  4.80331000E+00  1.45933000E+00  4.83456000E-01  4.83456000E-01
  1.45585000E-01  1.45585000E-01  4.56324000E+03  6.82024000E+02  1.54973000E+02
  4.44553000E+01  1.30290000E+01  1.82773000E+00  2.09642000E+01  4.80331000E+00
  1.45933000E+00  2.09642000E+01  4.80331000E+00  1.45933000E+00  4.83456000E-01
  4.83456000E-01  1.45585000E-01  1.45585000E-01  8.58850000E+03  1.29723000E+03
  2.99296000E+02  8.73771000E+01  2.56789000E+01  3.74004000E+00  4.21175000E+01
  9.62837000E+00  2.85332000E+00  4.21175000E+01  9.62837000E+00  2.85332000E+00
  9.05661000E-01  9.05661000E-01  2.55611000E-01  2.55611000E-01  8.58850000E+03
  1.29723000E+03  2.99296000E+02  8.73771000E+01  2.56789000E+01  3.74004000E+00
  4.21175000E+01  9.62837000E+00  2.85332000E+00  4.21175000E+01  9.62837000E+00
  2.85332000E+00  9.05661000E-01  9.05661000E-01  2.55611000E-01  2.55611000E-01
  3.38650000E+01  5.09479000E+00  1.15879000E+00  3.25840000E-01  1.02741000E-01
  3.38650000E+01  5.09479000E+00  1.15879000E+00  3.25840000E-01  1.02741000E-01
  3.38650000E+01  5.09479000E+00  1.15879000E+00  3.25840000E-01  1.02741000E-01
Contraction coefficients                   R   N=          95
  1.96979000E-03  1.49613000E-02  7.35006000E-02  2.48937000E-01  6.02460000E-01
  2.56202000E-01  1.11906000E-01  9.21666000E-01 -2.56919000E-03  3.83119000E-02
  2.37403000E-01  8.17592000E-01  1.00000000E+00  1.00000000E+00  1.00000000E+00
  1.00000000E+00  1.96665000E-03  1.52306000E-02  7.61269000E-02  2.60801000E-01
  6.16462000E-01  2.21006000E-01  1.14660000E-01  9.19999000E-01 -3.03068000E-03
  4.02487000E-02  2.37594000E-01  8.15854000E-01  1.00000000E+00  1.00000000E+00
  1.00000000E+00  1.00000000E+00  1.96665000E-03  1.52306000E-02  7.61269000E-02
  2.60801000E-01  6.16462000E-01  2.21006000E-01  1.14660000E-01  9.19999000E-01
 -3.03068000E-03  4.02487000E-02  2.37594000E-01  8.15854000E-01  1.00000000E+00
  1.00000000E+00  1.00000000E+00  1.00000000E+00  1.89515000E-03  1.43859000E-02
  7.07320000E-02  2.40001000E-01  5.94797000E-01  2.80802000E-01  1.13889000E-01
  9.20811000E-01 -3.27447000E-03  3.65114000E-02  2.37153000E-01  8.19702000E-01
  1.00000000E+00  1.00000000E+00  1.00000000E+00  1.00000000E+00  1.89515000E-03
  1.43859000E-02  7.07320000E-02  2.40001000E-01  5.94797000E-01  2.80802000E-01
  1.13889000E-01  9.20811000E-01 -3.27447000E-03  3.65114000E-02  2.37153000E-01
  8.19702000E-01  1.00000000E+00  1.00000000E+00  1.00000000E+00  1.00000000E+00
  2.54938000E-02  1.90373000E-01  8.52161000E-01  1.00000000E+00  1.00000000E+00
  2.54938000E-02  1.90373000E-01  8.52161000E-01  1.00000000E+00  1.00000000E+00
  2.54938000E-02  1.90373000E-01  8.52161000E-01  1.00000000E+00  1.00000000E+00
Alpha Orbital Energies                     R   N=          74
 -2.06550447E+01 -2.06498382E+01 -1.59545824E+01 -1.15345846E+01 -1.14823064E+01
 -1.57479585E+00 -1.46434116E+00 -1.43856279E+00 -1.15491366E+00 -9.33823721E-01
 -8.72458136E-01 -8.29206367E-01 -8.06254920E-01 -7.53439693E-01 -7.39481885E-01
 -6.96524869E-01 -5.67970284E-01 -5.60384137E-01 -5.40431608E-01 -2.29807906E-01
 -1.55980116E-02  2.93141260E-02  4.03745473E-02  9.91805881E-02  1.48582200E-01
  2.35681800E-01  2.76771953E-01  3.27500500E-01  3.88245719E-01  3.97367840E-01
  4.34648058E-01  4.79973951E-01  5.05070839E-01  5.63737224E-01  5.97778515E-01
  6.06587239E-01  6.30325224E-01  6.61929989E-01  7.17920539E-01  7.27226234E-01
  7.50149286E-01  8.56816497E-01  9.27233248E-01  9.80857576E-01  9.90252262E-01
  1.03417635E+00  1.10567798E+00  1.10987799E+00  1.28780087E+00  1.64676215E+00
  1.80561238E+00  2.28465996E+00  2.38293468E+00  2.40544251E+00  2.76752638E+00
  2.85990551E+00  2.95834354E+00  3.00466127E+00  3.15069132E+00  3.25471164E+00
  3.84448731E+00  3.93808894E+00  4.09555366E+00  5.23842978E+00  5.27933556E+00
  5.35798843E+00  5.36394238E+00  5.39680002E+00  5.44274819E+00  2.42519548E+01
  2.44370897E+01  3.63386730E+01  5.14233862E+01  5.15183599E+01
Alpha MO coefficients                      R   N=        5476
 -2.18974528E-07  3.07651085E-06 -3.91026571E-06 -6.07159497E-06  3.72632907E-06
 -1.60298741E-05  1.28868398E-05  1.41327707E-05 -2.07961438E-05 -3.92190916E-05
  2.47241181E-05  1.31908429E-05  4.27778520E-05  2.05688826E-08  1.16158094E-05
 -9.67926768E-06 -1.21666985E-05  4.37129495E-06 -6.47933045E-05  2.41399277E-05
  3.23406726E-05 -3.67974297E-05  3.37928413E-04  6.59793211E-05  8.66728432E-05
  8.97023808E-05  2.51044177E-06 -6.62303047E-05 -7.69491674E-05 -9.26693454E-05
  6.22938298E-05  2.81356885E-04 -1.09982453E-04 -1.33483495E-04  5.93076288E-05
  5.74063371E-05 -3.06926660E-04 -3.73140621E-04  3.73841832E-04 -2.05265418E-03
 -1.75119460E-03  8.12819896E-06  1.03478902E-05  5.43989772E-07 -4.85437448E-05
  2.55546017E-06  2.60749606E-06  6.54382836E-06  1.47513444E-04  3.53203898E-05
  4.21121672E-05 -1.54768092E-04  5.51450823E-01  4.71672480E-01  1.32315125E-03
  1.61342232E-03 -1.12426043E-03  5.56608036E-03 -4.42194053E-04 -5.41090052E-04
  3.90533715E-04 -7.97412728E-04  1.72649822E-05  2.38747293E-05 -5.93923004E-05
  1.70086851E-06 -2.46498657E-05  6.80923536E-06  1.33848361E-05 -5.86653249E-05
  1.76848471E-05  1.39338263E-05 -5.79413049E-05  2.32930461E-05  8.84469596E-08
  4.18171390E-06  1.66714855E-07  2.58816733E-06  2.62278594E-06 -3.37017429E-05
  2.19837977E-06 -4.78160352E-06 -1.55045112E-05  1.54126838E-04 -2.84373608E-05
 -6.28560408E-05  2.73555715E-05  1.52617984E-07  9.03198546E-06  1.04296408E-05
  1.36463945E-05  5.80316939E-06 -2.73354734E-05 -3.65575625E-05 -4.60290069E-05
 -4.64470795E-05  9.06547216E-05 -1.24918489E-04 -1.22326143E-04  1.57854202E-04
  1.61968266E-06 -6.69233418E-05  7.42298371E-05  9.34430131E-05  6.50834304E-05
  2.74680598E-04  1.13042712E-04  1.39547183E-04  3.86305217E-05  9.88569258E-05
  2.96464768E-04  3.64586845E-04  3.33190817E-04  5.51457054E-01  4.71677476E-01
 -1.31055142E-03 -1.66854059E-03 -1.21775292E-03  5.53279770E-03  4.40927405E-04
  5.60755795E-04  4.17862682E-04 -7.74970610E-04 -2.97450984E-05 -3.76898853E-05
 -7.17141106E-05  2.05606744E-03  1.76243383E-03  1.18942791E-06  1.09871867E-06
 -6.72196154E-06 -2.08727200E-06 -3.16139286E-06 -4.12995801E-06  8.68563023E-06
  1.24822221E-04 -3.57873883E-05 -4.61654501E-05 -1.40045749E-04  9.74075203E-06
 -6.31044130E-05  6.28677364E-05 -8.02722440E-06  6.20141249E-06 -6.75249982E-07
 -5.41071058E-06 -1.34521500E-05  7.22778020E-06 -5.57869511E-01 -4.68443183E-01
 -1.17054482E-03  2.02574978E-03 -1.54651156E-03 -3.95355034E-03  4.63137047E-04
 -8.03449442E-04  6.30793465E-04  6.42840862E-04 -1.90570268E-04 -2.45484979E-05
 -3.07345770E-05 -1.37101773E-05  4.78019322E-05  2.12465825E-05 -1.28743231E-05
  8.80621089E-06 -9.10810547E-05 -2.79537744E-04 -2.88773438E-04  1.45607796E-04
 -1.11003891E-03 -1.51424448E-04 -2.10326364E-05 -1.69480537E-04 -7.78050392E-07
  1.30666996E-06 -1.78262593E-05 -1.36280838E-05  1.40593649E-05 -4.04701858E-05
  6.36552341E-05  5.70593669E-05 -4.11011688E-05  5.61643825E-04  1.10838738E-04
  6.35283217E-05 -2.97448459E-04 -5.83828674E-07 -2.70131451E-06 -4.35039306E-06
 -6.17293359E-06 -2.03455375E-06  2.57505843E-05  1.18028768E-05  1.10392303E-05
 -6.32357463E-06 -1.63509273E-04 -2.70523976E-07  1.74301036E-05  8.19323723E-05
  4.41901447E-07  1.02444223E-06 -4.69428048E-06 -3.39282645E-06  4.92596417E-06
 -1.33382946E-05  1.58524556E-05  1.30518855E-05 -1.73298668E-05  8.32628732E-05
 -6.07075812E-06  2.34239543E-05  1.86046769E-05 -4.28716051E-04 -1.83368520E-04
  5.99217102E-05 -1.62754237E-05  2.29825473E-04  5.16810019E-05 -1.86016364E-05
  1.33950895E-04 -4.81665474E-05  1.15644891E-06  3.45532376E-06 -3.28825875E-06
  2.70755773E-06  7.96779308E-06 -1.06049912E-05  9.21321952E-06  3.16041303E-05
 -8.55863848E-06 -9.78122309E-05  2.52322588E-05  2.76886893E-05 -1.47927632E-05
  2.88288687E-03  2.33431111E-03  1.43906598E-05  1.27750035E-05  1.35764420E-04
  2.11053031E-04 -3.78907170E-06 -1.19409431E-05  2.12115050E-04  8.13958217E-04
  3.81182630E-05  7.00942327E-05  3.42561473E-04  5.63362363E-01  4.66624430E-01
 -2.54495811E-05 -3.35681085E-05 -3.28516218E-04  4.17711956E-03  2.88557200E-05
  3.26044454E-05  2.74441923E-04 -9.71845563E-04  1.01918616E-05  2.04218218E-05
  4.97126299E-04 -1.67018846E-04 -2.68971735E-04 -1.28855151E-04 -1.59382291E-04
 -8.80613862E-05  6.25835401E-04 -3.92206937E-04 -4.85485785E-04 -2.83378218E-04
 -1.03859597E-04  1.70614351E-04  2.11192064E-04  7.55500559E-06 -1.69687535E-04
 -2.73643669E-04  1.34046856E-04  1.60544419E-04 -8.48862002E-05  6.37280487E-04
  4.05917485E-04  4.89630109E-04 -2.96085145E-04 -5.29573914E-05 -1.59607377E-04
 -1.93833271E-04  2.42781154E-06 -3.44341799E-07 -6.29327929E-06 -1.32752817E-05
  1.85750150E-06 -8.81163715E-05  6.89447464E-05 -1.98987706E-06 -9.23013751E-05
  5.93088149E-05  8.49187693E-05  1.39872223E-04  8.37664947E-05  1.15927233E-04
 -5.76641933E-05 -3.30984967E-04  1.85882458E-04  2.60623298E-04 -1.07134333E-04
 -3.83015020E-05 -4.93852157E-05 -6.05640076E-06 -5.43894843E-05 -5.63320499E-01
 -4.66530602E-01 -9.65023079E-04 -8.50506229E-04  6.58955308E-04 -4.55295943E-03
  4.72852993E-04  4.44067502E-04 -3.86507667E-04  1.57857230E-03 -3.29651356E-04
 -2.86449130E-04  3.99520416E-04  2.97070164E-03  2.49822797E-03  2.24912934E-05
  2.86225218E-05  1.33392451E-04 -1.55233895E-04 -8.55083858E-05 -8.65380076E-05
  1.34256969E-04 -6.43262773E-04 -1.86170713E-05 -3.34558689E-05  2.21903647E-04
 -4.89062095E-06 -9.02466546E-06  2.65296891E-06  3.51205633E-06 -5.70562572E-06
  1.30779335E-05 -2.52723961E-05 -3.23236110E-05 -5.26712965E-05  1.77492287E-04
 -2.30687098E-05 -3.07903874E-05 -5.98702811E-05 -3.94478301E-06 -8.19492697E-06
  7.04909574E-06  8.60065244E-06 -8.39274080E-06  4.31814559E-05 -7.94431682E-06
 -1.43454364E-05 -1.48901542E-05 -7.82672446E-05 -2.75242006E-07  3.31211881E-06
  5.68438772E-05  2.56652556E-05  4.24367584E-05  4.83861095E-05 -3.39085737E-04
 -1.81116265E-04 -2.59915668E-04 -3.48624908E-04 -2.03284945E-04 -3.23178601E-04
 -1.37184603E-02 -2.30406754E-02 -4.93210717E-04 -7.10864754E-03  6.00514640E-03
  6.70429683E-02  4.05017301E-04 -1.30708959E-02  1.18569481E-02  3.11671879E-02
  3.03601898E-03 -2.00993175E-03  5.23020067E-04 -1.83582592E-02 -3.04650219E-02
  3.16165370E-03  3.30431505E-03  1.37564462E-02  7.73312477E-02  6.32496054E-03
  6.81985908E-03  1.86265682E-02  5.43543978E-02  4.89650811E-03  2.55087494E-03
  1.16629365E-02 -7.62674605E-02 -1.25230681E-01  2.64035279E-04  1.01692482E-03
  4.12063054E-02  3.40691092E-01  3.26255111E-04  1.10741483E-03  4.23105833E-02
 -1.39792850E-02  1.59830060E-03  1.66539741E-03 -1.95243215E-02 -6.75152631E-02
 -1.12867223E-01 -2.59791261E-02 -3.26293037E-02 -1.84780481E-02  3.18648467E-01
 -4.89944992E-02 -6.13723012E-02 -3.79210359E-02  2.44689635E-01 -1.99135893E-02
 -2.61782684E-02 -1.57318436E-02 -6.78421598E-02 -1.13424086E-01  2.66187351E-02
  3.22322575E-02 -1.72492900E-02  3.20033901E-01  5.01260767E-02  6.05832232E-02
 -3.63240686E-02  2.49839095E-01  2.08815805E-02  2.55719881E-02 -1.16555780E-02
  1.12133034E-02  7.86030039E-03 -5.29167247E-03  8.49198735E-03  1.83455538E-03
 -1.35888473E-03  7.62397490E-03  2.80724796E-03 -9.25695927E-04  4.34006544E-02
  7.27868864E-02 -5.55217300E-03  1.69077411E-02 -1.25970754E-02 -2.07351304E-01
 -1.37246352E-02  3.47306965E-02 -2.52318286E-02 -1.49699079E-01 -3.74942825E-03
  1.76644838E-02 -1.91207581E-02  1.85360739E-02  3.11833570E-02 -1.48117795E-02
 -1.60372001E-02  6.52178634E-03 -8.06687806E-02 -2.33834153E-02 -2.59364136E-02
  9.62170910E-03 -3.12464768E-02 -8.00516152E-03 -4.49943354E-03  1.55040118E-03
 -3.07058250E-03 -4.93717685E-03 -7.48398060E-02 -9.13851140E-02  1.26220824E-02
  1.31540018E-02 -1.06353857E-01 -1.30573711E-01  1.88523845E-02 -2.69368431E-04
  2.83152654E-02  3.46570718E-02 -2.30906239E-03  6.48956450E-02  1.08551220E-01
  1.61658315E-02  2.07547355E-02  2.37765435E-02 -3.05173905E-01  3.11328555E-02
  3.95385955E-02  4.09758961E-02 -2.56510836E-01  1.04585249E-02  1.49236790E-02
  2.15043066E-02 -7.81153045E-02 -1.30703115E-01  2.18075925E-02  2.62291685E-02
 -2.23141281E-02  3.67874084E-01  4.19516114E-02  5.06978807E-02 -3.94634947E-02
  3.08303160E-01  1.37301918E-02  1.62983496E-02 -1.93733314E-02 -4.00195120E-02
 -2.36849285E-02  4.48660181E-03 -9.18937568E-03 -5.37786642E-03  5.56783820E-03
 -7.19598059E-03 -4.86950455E-03  3.45410693E-03 -9.35653277E-02 -1.57302080E-01
  1.32914751E-02 -3.51637839E-02  2.24827246E-02  4.54317386E-01  3.15723818E-02
 -7.23198749E-02  4.80786398E-02  3.21818624E-01  4.66283942E-03 -3.85473082E-02
  1.55718364E-02 -4.43887503E-02 -7.48162462E-02  2.08803002E-02  2.10473074E-02
 -1.42732248E-02  1.94325821E-01  4.08047874E-02  4.34087510E-02 -2.67438567E-02
  1.00532774E-01 -6.48863728E-03 -2.14075344E-02  2.03283372E-02  6.60192797E-03
  1.04140101E-02 -3.42596662E-02 -4.33597779E-02 -2.55413509E-02 -2.45896587E-02
 -4.91290849E-02 -6.08971853E-02 -3.70425829E-02 -2.26028140E-02  9.85082966E-03
  1.48339946E-02  1.57711988E-02  4.85077567E-02  8.12464995E-02  1.50678950E-02
  1.86424513E-02  9.46863702E-03 -2.29873506E-01  2.89132422E-02  3.65280397E-02
  1.80673176E-02 -1.88448483E-01  1.12202844E-02  1.25844433E-02  1.06386548E-02
 -2.05026839E-02 -3.43701074E-02  3.88321213E-03  4.44211884E-03 -9.62460463E-03
  9.76557904E-02  7.89872448E-03  9.11055146E-03 -1.51866145E-02  7.82744807E-02
  2.02526210E-03  2.01785115E-03 -5.07674556E-03  8.67709879E-02  6.11882367E-02
 -1.79967116E-02  2.62641310E-02  1.62965082E-02 -8.62646296E-03  2.21882782E-02
  1.65191729E-02 -6.05955211E-03 -4.43845597E-02 -7.48362625E-02  8.69686162E-02
  3.53579003E-02 -7.98289397E-03  2.14081480E-01  1.54669557E-01  5.20973447E-02
 -7.69926036E-03  2.49575021E-01  3.18378949E-02 -2.83214966E-03  4.43988149E-03
  8.56924517E-02  1.45430980E-01  1.93289496E-02  1.95216912E-02 -1.33880730E-02
 -3.82887452E-01  2.31487419E-02  2.30331510E-02 -2.15204870E-02 -3.98777472E-01
 -1.32667660E-02 -1.33390149E-02 -3.85573682E-03  2.04839988E-02  3.53304182E-02
 -1.13373416E-03 -5.26234433E-05  6.82842205E-02 -1.04406724E-01 -5.50447505E-04
  2.43490188E-03  1.12416949E-01  6.79782361E-03  6.41010141E-03  5.86260247E-03
  1.08503155E-03 -1.52906770E-02 -2.58165320E-02 -8.05197941E-04 -1.18963302E-03
  1.40984604E-02  7.55101386E-02 -2.45437118E-03 -3.21791508E-03  1.91580887E-02
  6.35022678E-02  3.05761428E-03  2.81272823E-03  9.03319779E-03 -2.01894646E-02
 -3.40661875E-02  2.68672040E-03  3.61940181E-03  1.87881427E-02  9.88572896E-02
  7.32561944E-03  9.13820157E-03  2.68042481E-02  9.43609190E-02 -3.08966443E-05
  6.65951088E-04  1.54730909E-02  9.66541552E-02  1.07928940E-01  3.07413012E-03
 -7.69513627E-02 -6.24254109E-02  1.68712199E-02 -7.78128191E-02 -6.26574994E-02
  1.59279182E-02  1.97683290E-02  3.34850141E-02  1.58597594E-01  2.21094695E-02
  3.14205740E-02 -1.02061429E-01  2.70103244E-01  4.65247183E-02  5.03965430E-02
 -1.17896999E-01  1.33153652E-01  2.07884379E-02  2.44265279E-02  1.03228685E-04
  7.75964639E-04  1.45306855E-02 -5.64864926E-02  1.06574730E-01 -3.18848691E-05
  1.94673010E-02 -1.09538651E-01  1.95468129E-01 -2.71067884E-02  4.57846444E-02
 -3.00998450E-02  6.95559602E-02 -4.30512949E-02 -7.39338352E-02  6.10866973E-03
 -1.47466761E-02 -7.35968394E-02  2.17639028E-01  1.20115504E-02 -2.34469023E-02
 -1.30446889E-01  1.09650482E-01  1.66545166E-02  9.70980481E-03 -8.13474212E-02
  2.20000176E-02  3.71647920E-02 -1.57146149E-03 -1.60852609E-02 -4.16968338E-02
 -1.08969816E-01 -7.92800587E-04 -2.30228781E-02 -6.42311129E-02 -1.24394463E-01
 -3.39581562E-03 -2.17991613E-02 -3.27685195E-02  2.48284975E-02  4.20957526E-02
  1.86179685E-02  1.07230525E-02 -4.99511932E-02 -1.26286772E-01  2.66633653E-02
  1.34060441E-02 -7.73445546E-02 -1.17281996E-01  2.60779754E-02  1.92743991E-02
 -5.16949676E-02  1.05612788E-01  1.52370393E-01  4.92779295E-03  1.74332642E-02
  2.53367276E-02  1.51064528E-03 -3.98746754E-02 -3.25990341E-02  2.13942285E-03
 -2.20098124E-02 -3.73350169E-02 -8.87255758E-02  4.88697196E-02 -9.70387339E-03
  1.14022249E-01 -1.50384800E-01  7.51476417E-02 -7.32040592E-03  1.48150578E-01
 -8.86622402E-02  5.06980089E-02 -1.02159807E-02  1.88025356E-02  3.17979159E-02
 -3.59669918E-02  1.14681456E-01  7.91652703E-02 -7.52644919E-02 -5.95109172E-02
  2.12545854E-01  1.40029629E-01 -1.56244239E-01 -8.50225080E-02  9.04863289E-02
  5.91086403E-02 -4.21063595E-02 -7.26321136E-02 -2.07889107E-02  2.45388034E-02
 -3.55773200E-02  2.19190944E-01 -3.11490359E-02  5.15118534E-02 -6.53810955E-02
  1.18843922E-01  1.80408521E-02  3.55442812E-02 -8.13976165E-02  2.74182950E-02
  4.63350128E-02 -4.20891596E-02 -1.85498812E-02 -4.84410212E-02 -1.35484320E-01
 -6.11096070E-02 -2.28738981E-02 -7.28927920E-02 -1.79871128E-01 -4.95432269E-02
 -1.66638699E-02 -4.10411503E-02  1.81693360E-02  3.07741633E-02  6.28158349E-03
  4.02746710E-02 -3.19867174E-02 -9.29128979E-02  9.60467768E-03  6.25590213E-02
 -5.15223401E-02 -7.57586202E-02  1.18402743E-02  5.75268986E-02 -3.14227763E-02
 -5.32080787E-02 -7.16035147E-02 -1.58924712E-02 -1.36128407E-01 -1.69289135E-01
 -2.68947342E-02 -6.96583116E-03 -1.68947132E-02 -1.62266728E-02 -8.32706841E-03
 -1.41616013E-02  6.86456465E-02  1.25719973E-01 -6.66182165E-02  4.85494583E-02
  1.19610640E-01  2.10477771E-01 -1.11169005E-01  4.06202412E-03  7.05390300E-02
  1.54759173E-01 -8.52793257E-02 -9.88165083E-03 -1.68323430E-02 -1.54187313E-01
 -3.04960013E-02 -1.80745382E-02  4.44926438E-02 -2.76072186E-01 -5.77203527E-02
 -3.11868625E-02  8.98262677E-02 -1.54962210E-01  2.10790887E-02 -4.95409790E-02
  8.41867761E-03  1.47086341E-02 -5.39886865E-02  1.19828772E-03 -1.74518772E-03
 -4.92429651E-02 -1.05364157E-01 -8.84238625E-03 -5.40175108E-03  5.06838479E-03
 -2.80215018E-02  3.57001497E-03 -1.45760023E-03 -1.68315120E-02 -2.84773279E-02
 -1.60028723E-03  4.48962919E-02  3.39369229E-02  8.30837152E-02 -8.86301556E-03
  6.33512464E-02  4.94165387E-02  1.20966635E-01 -9.34048994E-03  4.66359723E-02
  3.35080101E-02  6.70835105E-03  1.13690785E-02 -2.06199702E-02  2.36864552E-02
 -2.70902689E-02 -3.27517078E-02 -3.65121610E-02  3.22211838E-02 -3.95224678E-02
 -6.14484191E-02 -3.34499932E-02  2.23113772E-02 -3.12981771E-02  4.75272479E-02
  8.38065100E-02  1.90969159E-02 -7.36563516E-03 -1.10564127E-04  6.87858072E-03
  1.33971687E-01  1.68115204E-01  1.62687777E-02 -8.51626428E-03 -1.48618609E-02
 -7.84066914E-03  1.12949303E-02 -3.87588258E-02  5.28607234E-02 -1.35817873E-02
  1.54673028E-02 -6.27855991E-02  3.35205935E-03  1.54687192E-03  2.70675856E-02
 -6.75496827E-02  2.31148194E-03  3.30435490E-03  7.71298474E-03 -4.06748186E-02
 -5.53596310E-02 -1.13425362E-02  1.48639860E-02 -7.08293582E-02 -8.50561553E-02
  1.71860566E-02  2.95479932E-02 -1.75898802E-02 -9.33147656E-02 -3.95224031E-02
 -6.99421951E-02 -6.36509064E-03 -2.92528106E-02  1.14385192E-01  2.39086791E-01
 -1.25706282E-02 -5.51347745E-02  2.12987305E-01  9.50504263E-02 -8.67512538E-03
 -2.78168586E-02  2.58753546E-02  2.46007200E-02  4.12804898E-02 -6.78216357E-02
 -9.83413311E-02  4.77935277E-02 -1.15918896E-01 -1.01451511E-01 -1.48781962E-01
  7.43198386E-02 -1.78194926E-01 -7.37943185E-02 -1.07408930E-01  7.71496435E-02
  3.93762640E-02  6.61405041E-02  1.12493536E-01  1.18266926E-01 -7.42488088E-04
 -1.86677714E-01  1.66001610E-01  1.72631390E-01  4.59276538E-03 -3.11536441E-01
  1.23283029E-01  1.25673936E-01  1.71615454E-02 -7.52416025E-03 -2.39101612E-03
 -1.77000579E-02  4.53622706E-02  6.52095334E-02  3.30675658E-03  1.71235415E-03
  3.03045751E-03 -1.36700112E-02 -2.54944437E-02 -4.31444889E-02 -7.93809346E-02
  1.03943707E-01 -7.74705382E-02  1.31665083E-01 -1.28130647E-01  1.63112109E-01
 -1.22655765E-01  1.73897323E-01 -9.52056333E-02  1.36157968E-01 -9.72771062E-02
  8.95670283E-03  1.54835669E-02  3.87272486E-02 -3.99475346E-02  3.52179721E-02
 -3.90786224E-02  7.09213040E-02 -6.72063125E-02  5.23705832E-02 -6.64190139E-02
  1.45051465E-02 -3.72240164E-02  1.78377157E-02  1.26366473E-03  2.85241368E-03
  1.29228786E-02 -1.14644228E-01 -4.23520951E-02 -2.12076130E-02  1.49908863E-02
 -2.18511701E-01 -8.43400602E-02  2.95261079E-02  6.95106345E-02 -6.72409062E-02
 -4.79856151E-02 -2.26388554E-02 -3.80543084E-02  1.13715429E-01  3.34829969E-02
  3.15396243E-02  1.07738362E-01  1.72694722E-01  4.04893354E-02  4.36185448E-02
  1.90974265E-01  1.22286648E-01  2.36201586E-02  2.57569134E-02  1.13305236E-02
  1.91271021E-02  7.69866367E-02 -3.37766137E-02 -8.40561608E-02 -5.63302260E-02
  1.18213113E-01 -5.82786743E-02 -1.27320739E-01 -8.68762023E-02  9.24562148E-02
 -5.15887450E-02 -1.04687537E-01 -6.18782894E-02 -9.40435751E-02  5.01484026E-03
  2.37482672E-02  4.93256991E-02  1.15737137E-02 -5.79774197E-02 -9.59547681E-02
 -2.30002241E-02  1.29534983E-02  2.18332150E-02  1.13497782E-02 -1.09444792E-01
  7.70423071E-02 -6.96997161E-02  1.53157286E-02 -1.80039524E-01  1.26654242E-01
 -4.79848539E-02  1.36524553E-03 -1.54912209E-01  1.04877638E-01  3.52448601E-04
  5.92874620E-04  1.58612148E-02  4.93972571E-02 -1.99746882E-03  5.61308877E-04
  2.87265696E-02  8.75372503E-02 -2.32784305E-03 -2.78647466E-02  2.14614445E-03
 -4.09639059E-03  3.61119388E-02  5.09070354E-03  9.00345966E-03 -1.22377678E-01
 -7.41698596E-02  3.30649332E-03 -2.73830593E-02 -2.29147726E-01 -1.42854963E-01
  8.49791173E-03 -4.95801745E-02 -4.57911699E-02  4.39377701E-02  2.37907582E-02
 -2.78568920E-02 -4.69366521E-02  3.93978978E-02  1.15099756E-01  8.80340265E-02
  1.37147982E-01  5.29681338E-02  1.72653683E-01  1.30846745E-01  2.12785938E-01
  3.49004970E-02  1.21205209E-01  9.57364455E-02  2.21276543E-02  3.72058318E-02
  2.97797735E-02  1.10899873E-01 -8.11554195E-02 -1.07349217E-01  3.81813278E-02
  1.65637278E-01 -1.19044272E-01 -1.76900606E-01  2.38829496E-02  1.24267427E-01
 -1.00488808E-01  1.83801132E-02  1.98352536E-02  1.07618905E-02 -3.80838000E-02
 -6.49056442E-02 -2.63557605E-02 -1.10837647E-02 -3.33969626E-03 -2.13459763E-03
  1.43442315E-02  2.41351507E-02  4.22856042E-02 -6.48439712E-02  6.40805235E-02
 -7.17250567E-02  6.59493156E-02 -1.00770299E-01  1.03795810E-01 -1.03143970E-01
  4.44585771E-02 -9.89287561E-02  8.66052748E-02 -5.34775119E-03 -9.34831521E-03
 -8.45653295E-02  7.77593600E-02 -1.50506667E-02  2.66462903E-02 -1.47304428E-01
  1.36551361E-01 -2.22537618E-02  2.94874490E-02 -1.21627435E-01  7.51384877E-02
  9.78790533E-03  2.94015671E-03  5.03783918E-03  7.85308513E-02 -7.00930193E-02
  1.80891413E-02 -1.28349942E-02  1.41398473E-01 -1.22882774E-01  3.88192429E-02
 -2.77011137E-02  1.28714670E-01 -7.18688048E-02  3.32600634E-02  6.97937758E-04
  1.11094942E-03  8.68619953E-02 -7.58350325E-02  1.58432301E-02 -1.11710305E-03
  1.39036872E-01 -1.18547203E-01  2.58695379E-02 -2.58430101E-02  1.21442253E-01
 -9.88474466E-02  2.21549575E-02  8.45056272E-04  1.43385180E-03  1.05142400E-01
 -6.34845843E-02  1.65444946E-02 -4.47197774E-03  1.66582735E-01 -1.01911947E-01
  2.63405504E-02  3.14700493E-05  1.40354968E-01 -8.71302383E-02  2.12942797E-02
  4.27423241E-02  7.93165881E-02  1.41941880E-02 -8.85599373E-02 -1.46152804E-01
 -3.58801436E-02  9.49131427E-02  1.50442591E-01  2.61004241E-02  5.27113166E-03
  9.26178542E-03 -1.73764657E-03  2.91695467E-02  7.16572999E-04 -3.06487458E-02
 -1.70108421E-03  4.87384279E-02 -4.10166415E-03 -4.15317825E-02 -2.18516216E-03
  5.37538646E-02  2.15085111E-02  3.46538001E-04  9.54478059E-04 -6.64915594E-03
 -1.47046320E-02 -2.36923122E-02 -4.33616522E-03 -1.84075230E-02 -3.32769122E-02
 -4.67198700E-02 -3.18859864E-02 -3.08063985E-03 -6.81325290E-03 -6.12382907E-02
  1.73628907E-03  3.69396498E-03 -2.18713176E-02 -2.80192038E-02  1.59837967E-02
 -1.84033835E-02 -1.24239502E-02 -1.74336359E-02  2.26685628E-02  9.26917234E-03
  1.18166914E-01  1.40012196E-01 -3.09071100E-02  2.37487155E-03  4.09768257E-03
  9.03241561E-02  9.33918164E-02 -1.82461861E-01 -7.81329270E-03  1.47723579E-01
  1.54605125E-01 -2.77609926E-01 -1.04436476E-01  1.53485644E-01  1.58578327E-01
 -2.80626676E-01 -1.26446701E-03 -2.11358309E-03  7.57658323E-02  1.12111159E-01
  1.28025078E-01 -3.14265019E-03  1.27452943E-01  1.85386828E-01  1.92713075E-01
  1.29724498E-01  1.31573992E-01  1.95109512E-01  1.92137336E-01 -3.23006383E-03