Gly.e+-localize-molden.E+.fchk                                                                      
        SP                           RHF                        PSX-TZ
Number of electrons                        I                1
Number of alpha electrons                  I                1
Number of beta electrons                   I                0
Number of atoms                            I                1
Number of basis functions                  I               56
Number of independent functions            I               56
Atomic numbers                             I   N=           1
           1
Current cartesian coordinates              R   N=           3
 -1.14853774E+00 -2.35919079E+00  5.47066265E+00
Shell types                                I   N=          15
           0           0           0           0           0           0
           1           1           1           1           2           2
           2           3           3
Shell to atom map                          I   N=          15
           1           1           1           1           1           1
           1           1           1           1           1           1
           1           1           1
Coordinates of each shell                  R   N=          45
 -1.14853774E+00 -2.35919079E+00  5.47066265E+00 -1.14853774E+00 -2.35919079E+00
  5.47066265E+00 -1.14853774E+00 -2.35919079E+00  5.47066265E+00 -1.14853774E+00
 -2.35919079E+00  5.47066265E+00 -1.14853774E+00 -2.35919079E+00  5.47066265E+00
 -1.14853774E+00 -2.35919079E+00  5.47066265E+00 -1.14853774E+00 -2.35919079E+00
  5.47066265E+00 -1.14853774E+00 -2.35919079E+00  5.47066265E+00 -1.14853774E+00
 -2.35919079E+00  5.47066265E+00 -1.14853774E+00 -2.35919079E+00  5.47066265E+00
 -1.14853774E+00 -2.35919079E+00  5.47066265E+00 -1.14853774E+00 -2.35919079E+00
  5.47066265E+00 -1.14853774E+00 -2.35919079E+00  5.47066265E+00 -1.14853774E+00
 -2.35919079E+00  5.47066265E+00 -1.14853774E+00 -2.35919079E+00  5.47066265E+00
Number of primitives per shell             I   N=          15
           1           1           1           1           1           1
           1           1           1           1           1           1
           1           1           1
Primitive exponents                        R   N=          15
  1.70647199E-02  4.34270059E-02  1.10514843E-01  2.81242750E-01  7.15718198E-01
  1.82138931E+00  4.96312946E-02  1.24207468E-01  3.10842086E-01  7.77914596E-01
  9.50648091E-02  2.33677729E-01  5.74400577E-01  1.59567515E-01  4.27306458E-01
Contraction coefficients                   R   N=          15
  1.00000000E+00  1.00000000E+00  1.00000000E+00  1.00000000E+00  1.00000000E+00
  1.00000000E+00  1.00000000E+00  1.00000000E+00  1.00000000E+00  1.00000000E+00
  1.00000000E+00  1.00000000E+00  1.00000000E+00  1.00000000E+00  1.00000000E+00
Alpha Orbital Energies                     R   N=          56
 -3.48680380E-03  6.16716019E-02  7.13283388E-02  7.61190281E-02  1.58568168E-01
  2.08949240E-01  2.60021200E-01  2.65784624E-01  2.87500811E-01  2.91756924E-01
  3.48714255E-01  3.75858456E-01  3.86872661E-01  5.06253943E-01  5.42437621E-01
  6.34348822E-01  6.36336361E-01  6.89957522E-01  7.34614519E-01  7.37760611E-01
  8.25201222E-01  8.49436834E-01  8.61081210E-01  9.36402935E-01  9.45813642E-01
  9.46131561E-01  1.08783751E+00  1.10090535E+00  1.18013462E+00  1.25982858E+00
  1.58971320E+00  1.80015132E+00  1.90996509E+00  1.92374856E+00  2.18824045E+00
  2.24654838E+00  2.24659400E+00  2.32106537E+00  2.33953978E+00  2.48689273E+00
  2.53301343E+00  2.96778264E+00  3.06549430E+00  3.06715155E+00  3.19201996E+00
  3.20327846E+00  3.24420010E+00  3.63586742E+00  3.63684602E+00  3.68475359E+00
  4.26813651E+00  6.12319823E+00  7.99883940E+00  8.01183517E+00  8.18611677E+00
  1.83367207E+01
Beta Orbital Energies                      R   N=          56
  0.00000000E+00  0.00000000E+00  0.00000000E+00  0.00000000E+00  0.00000000E+00
  0.00000000E+00  0.00000000E+00  0.00000000E+00  0.00000000E+00  0.00000000E+00
  0.00000000E+00  0.00000000E+00  0.00000000E+00  0.00000000E+00  0.00000000E+00
  0.00000000E+00  0.00000000E+00  0.00000000E+00  0.00000000E+00  0.00000000E+00
  0.00000000E+00  0.00000000E+00  0.00000000E+00  0.00000000E+00  0.00000000E+00
  0.00000000E+00  0.00000000E+00  0.00000000E+00  0.00000000E+00  0.00000000E+00
  0.00000000E+00  0.00000000E+00  0.00000000E+00  0.00000000E+00  0.00000000E+00
  0.00000000E+00  0.00000000E+00  0.00000000E+00  0.00000000E+00  0.00000000E+00
  0.00000000E+00  0.00000000E+00  0.00000000E+00  0.00000000E+00  0.00000000E+00
  0.00000000E+00  0.00000000E+00  0.00000000E+00  0.00000000E+00  0.00000000E+00
  0.00000000E+00  0.00000000E+00  0.00000000E+00  0.00000000E+00  0.00000000E+00
  0.00000000E+00
Alpha MO coefficients                      R   N=        3136
  1.21832713E+00 -1.10917353E+00 -1.06413330E+00  2.08511573E-01  2.22901902E-01
  4.32783879E-04 -1.54779371E-01 -1.02864898E-01  5.32297193E-01 -1.25348233E-01
 -3.58804047E-02  5.62813352E-01  4.04907182E-04 -1.18685563E-02 -5.42544247E-02
  1.61511643E-02  8.87436548E-03 -5.56865008E-02  3.68267311E-01  3.62945605E-01
  4.20314484E-01 -1.75323096E-02  7.20270124E-03  1.72458583E-02  3.29342549E-01
  3.26590403E-01  3.20995881E-01 -1.20728183E-03 -3.55207956E-03 -6.26887876E-03
  7.78972924E-02  7.83773500E-02  8.03994259E-02 -9.45964583E-05  1.03347293E-03
  1.78016819E-03  7.37271715E-02  6.48655374E-03 -3.59576738E-01  1.54972185E-02
 -5.60742360E-03 -1.64324932E-01  4.22045252E-02  1.71979096E-02 -1.63069111E-01
 -2.74299976E-04  2.37798368E-02  7.68849148E-03 -1.07941956E-01  1.37129074E-02
  5.11814537E-03 -4.73527870E-02  9.05369092E-03  1.21379310E-03 -4.74599137E-02
  2.76185297E-04 -3.04352151E+00  8.67812447E+00  4.37439530E+00 -1.59209522E+00
 -1.11606197E+00 -2.32512209E-02 -6.21896199E-02 -1.51825181E-01  2.53750197E-01
  8.69379640E-02 -4.65693782E-02 -1.12290071E-01 -2.17903884E-02 -9.32331190E-03
  2.76126244E-02 -2.51223867E-03  9.89837843E-03 -1.20841849E-03 -2.34169878E+00
 -2.34101998E+00 -2.25916768E+00  9.60625551E-03 -2.71066933E-02 -3.41610352E-02
 -1.57426655E+00 -1.57573981E+00 -1.59526065E+00 -9.99463688E-03  1.18259582E-02
  1.47701963E-02 -3.66181650E-01 -3.66078088E-01 -3.60402850E-01  1.66453727E-03
 -2.67979257E-03 -3.20892672E-03 -6.99763774E-02  1.11839079E-02  8.39949457E-02
 -3.74054655E-02  1.87279244E-03  3.44938928E-02 -2.51443340E-02  1.46893379E-02
  3.31698937E-02 -2.07197381E-03 -1.67908144E-02  8.04602104E-03  1.46567890E-02
 -7.31126875E-03  3.59366304E-03  7.18436477E-03 -8.25222262E-03  2.43396465E-03
  7.45347665E-03  6.42515763E-04 -1.77014617E-01  4.60101137E-01 -1.90667674E-01
 -5.37696686E-02  2.54466805E-02  8.07486591E-04  6.73140150E-01  9.70134890E-01
  7.50029501E-01  8.03953348E-01  1.14678153E+00  8.70883246E-01 -9.58070884E-02
 -1.35628146E-01 -9.96191632E-02 -7.24032803E-02 -1.04025803E-01 -8.10471835E-02
 -2.01815469E-01 -2.31463382E-01  1.12047236E-01 -1.28746046E-01  6.29834248E-02
  1.12322836E-01  2.94445303E-02  3.01158473E-02 -5.80861136E-02  2.78396153E-02
 -2.62058443E-02 -4.31707516E-02 -9.38351529E-04 -1.27693512E-03  1.83508411E-02
 -6.38201905E-03  5.42168292E-03  9.03323885E-03 -5.27221445E-01 -7.70669066E-01
 -5.90634247E-01 -2.73445969E-01 -3.63631882E-01 -2.55412664E-01 -2.12100133E-01
 -3.09214383E-01 -2.50361518E-01  6.15958303E-03 -1.50993525E-01 -2.13993735E-01
 -1.63921892E-01 -6.04798187E-02 -9.16846895E-02 -7.58347281E-02 -7.19511783E-02
 -1.01847606E-01 -7.67480754E-02 -1.55783592E-03  1.65795538E-01 -5.21731511E-01
 -3.32376620E-01  1.13053560E-01  7.67616429E-02  1.38572880E-03  1.08136716E+00
 -8.41585276E-01  1.13796289E-01  1.07522232E+00 -8.60051451E-01  1.52346361E-01
 -1.19433597E-01  9.45932864E-02 -1.60267776E-02 -1.04952571E-01  8.38480939E-02
 -1.42210880E-02  6.69472950E-02  2.11334105E-01  1.92310420E-01 -2.80060602E-03
  1.64830989E-01 -1.38007692E-01  1.21602647E-01  1.13251621E-01  9.97714782E-02
 -4.40718446E-03 -4.94984827E-02  3.95986451E-02  2.17893990E-02  2.57780958E-02
  2.77049304E-02  6.84842752E-04  1.09577425E-02 -8.90967348E-03 -7.31606618E-01
  5.85421757E-01 -1.01183430E-01 -3.22950023E-01  2.54232452E-01 -2.95630780E-02
 -3.28363660E-01  2.67059770E-01 -5.86746437E-02  3.21115045E-03 -2.12611247E-01
  1.72474288E-01 -2.91269496E-02 -9.36768273E-02  7.40244427E-02 -1.51636376E-02
 -9.27921533E-02  7.37261980E-02 -1.21376384E-02 -3.98421945E-04  5.70008336E-01
 -2.68047059E+00 -1.45410782E+00  6.13171425E-01  3.27503698E-01  8.77552493E-03
 -4.63100116E-01 -4.92327701E-01  7.84679869E-01 -5.57884423E-01 -6.80262805E-01
  7.59964895E-01  7.19937678E-02  9.13183349E-02 -5.58168218E-02  5.08442550E-02
  5.92980514E-02 -8.45746464E-02  5.49291154E-01  5.86596370E-01  1.04144511E+00
  2.80221037E-01 -3.71337292E-01 -3.72625922E-01  5.56181171E-01  5.52339401E-01
  3.80398872E-01 -6.95480271E-02  1.09480787E-01  1.06752904E-01  9.01484785E-02
  9.06242239E-02  1.27768838E-01  1.49815807E-02 -2.48611187E-02 -2.46424710E-02
  3.89981522E-01  4.96905554E-01 -5.17213992E-01  2.29317261E-01  2.47632301E-01
 -2.22550955E-01  1.52678899E-01  1.90723028E-01 -2.22443361E-01  1.02608542E-02
  1.19670718E-01  1.39207983E-01 -1.65420445E-01  4.29368344E-02  5.75138519E-02
 -7.95798447E-02  5.75936519E-02  6.84223588E-02 -8.10142401E-02 -5.48575164E-03
  2.35344202E+00 -1.31246603E+01 -9.46682722E+00  3.19551124E+00  2.16026679E+00
  2.96422867E-02  2.52442039E-01  2.61072585E-01 -4.60334525E-01  5.20410588E-01
  4.41849824E-01 -1.34473174E+00 -9.44230320E-02 -8.77584839E-02  2.09275162E-01
 -3.81739093E-02 -3.26765396E-02  9.78495214E-02  4.76611899E+00  4.73728559E+00
  4.87028880E+00 -1.67665463E-02 -3.52353282E-02 -1.89059833E-02  3.24894401E+00
  3.25082582E+00  3.24374432E+00 -8.53344496E-03  1.28759050E-02  1.16165458E-02
  7.28850546E-01  7.27743576E-01  7.31402022E-01  3.23018179E-04 -2.39166316E-03
 -1.88027919E-03 -4.22400609E-01 -3.81996109E-01  1.01128481E+00 -1.89631679E-01
 -1.71235510E-01  4.42399901E-01 -1.90893624E-01 -1.69199475E-01  4.40299538E-01
 -1.35817404E-03 -1.07796375E-01 -9.81857321E-02  2.51060339E-01 -5.15665484E-02
 -4.53976561E-02  1.14512697E-01 -4.61986914E-02 -4.13890054E-02  1.15354424E-01
  9.77508278E-04  8.30011281E-03 -5.17429296E-02 -2.17715840E-02  1.79330282E-02
  2.30072500E-03  2.35766161E-05 -7.41963759E-02  7.89066762E-02 -1.79072829E-03
 -1.03337927E-01  1.31319296E-01  1.20951553E-02  2.86258558E-02 -3.09108649E-02
 -2.09920017E-04  6.18153640E-03 -8.50879292E-03 -9.91207337E-04 -8.35286170E-01
  9.42406642E-01 -5.42854048E-02 -2.63200945E-01 -4.90477808E-01  2.85916125E-01
  2.69318015E-01 -2.74343427E-01  2.97230805E-02  8.05681646E-02  1.44327766E-01
 -8.37927736E-02 -5.06029641E-02  5.66103640E-02 -3.32828566E-03 -1.57832721E-02
 -2.75794853E-02  1.58892138E-02  1.89880129E-01 -2.09649989E-01 -1.83656504E-02
  3.52958395E-02 -8.83473279E-03 -4.46553497E-02 -2.18870274E-02 -1.26513780E-02
  6.27277159E-02 -1.44483542E-02  1.17983517E-02 -1.81527724E-02  9.86357212E-04
  1.11684977E-02 -1.61996731E-02  8.47861287E-03  2.26606761E-02 -1.94898740E-02
 -1.35900339E-02  3.21351714E-03  1.11781086E-02 -6.67916583E-02  1.91861131E-01
  5.97410109E-02 -6.88727168E-02 -3.15161456E-04  5.43363676E-02  8.48073818E-02
  1.02262956E-01 -4.11326418E-02  2.14594987E-02  4.19738637E-01  2.07345951E-02
  1.56135843E-02 -4.84430905E-02 -4.31217879E-03 -1.04216067E-02 -3.10547249E-02
  4.77573469E-01  9.64856105E-02 -5.36687647E-01 -7.22159528E-01 -3.66957612E-01
 -6.47222984E-01 -1.95416526E-01 -8.46988271E-02  9.84529910E-02  2.07738876E-01
  1.12590504E-01  1.94946874E-01  4.55449501E-03 -1.66629159E-02 -5.16674126E-02
 -4.00209991E-02 -2.19347066E-02 -3.78355069E-02 -1.43775287E-02 -8.55544972E-03
 -3.50521173E-01  8.49355053E-02  4.36457004E-02 -2.86269899E-02 -4.31969569E-02
 -1.10291971E-01 -3.75604039E-02 -4.20356262E-03 -1.94100568E-03 -2.38655383E-02
 -4.96991873E-02 -1.63178931E-02 -1.95047992E-02 -4.36402056E-02  8.68031478E-03
  1.19035698E-02 -4.02745474E-02  3.35947526E-03  3.39027430E-03 -3.15659509E-02
  4.29410407E-03 -9.98440346E-03  7.86572529E-03 -5.96198118E-05 -7.28305643E-01
  7.04518215E-01 -2.31059416E-02 -2.02046936E+00  2.05273088E+00 -9.62973162E-02
  2.96354988E-01 -3.06576634E-01  1.49245467E-02  1.47859519E-01 -1.47147325E-01
  6.42591305E-03 -3.74441770E-01  3.27906404E-01  5.22534010E-02  2.23823082E-02
  6.44099479E-01 -5.60388574E-01  9.77667747E-02 -6.54475106E-02 -3.60471948E-03
 -2.94550475E-03 -1.54645404E-01  1.29024871E-01 -1.58238372E-02  1.92501187E-02
  4.97926796E-03  2.11772942E-05  2.85663031E-02 -2.36944991E-02  1.40498148E+00
 -1.41910595E+00  7.80572149E-02  5.86926081E-01 -6.00838575E-01 -6.39739398E-02
  7.43359258E-01 -7.37238842E-01  1.05657343E-01 -1.40952401E-03  3.65738054E-01
 -3.64943096E-01  1.38010897E-02  1.72399691E-01 -1.70087330E-01  2.44797021E-02
  1.40642181E-01 -1.43177313E-01 -7.24445745E-03 -4.13729316E-04  4.66103982E-02
 -3.74169562E-01 -8.47431119E-01  1.95081485E-01  1.54432894E-01  7.96175336E-04
  7.06532216E-01  7.93623161E-01  7.18085338E-01  2.24608235E+00  2.58244735E+00
  2.36210237E+00 -3.60408180E-01 -4.14841360E-01 -3.24417899E-01 -1.50584849E-01
 -1.72220586E-01 -1.75369878E-01  3.57463265E-01  4.57042347E-01 -2.54462298E-01
  5.11655747E-01 -1.27136300E-01 -8.48976163E-02  2.28701290E-01  2.11847398E-01
  2.98719949E-01 -9.69716056E-02  2.28223059E-02  7.15940708E-03  5.28262786E-02
  5.69471322E-02  4.01384701E-02  2.03756019E-02 -2.57280864E-03  9.22560798E-04
 -1.53758249E+00 -1.79277095E+00 -1.70998390E+00 -7.86987286E-01 -8.66306489E-01
 -6.78308126E-01 -6.69968134E-01 -7.58058286E-01 -6.74412493E-01  5.64484987E-02
 -3.82742125E-01 -4.28455707E-01 -4.06089767E-01 -1.44427537E-01 -1.75404284E-01
 -2.00848727E-01 -1.78769266E-01 -2.06727527E-01 -2.02467388E-01 -1.24000208E-02
 -4.83894954E-02  3.32566769E-01  5.08955687E-01 -1.34327515E-01 -9.31233882E-02
 -1.66139057E-03 -7.86729878E-01  6.76478177E-01 -8.63781794E-02 -2.61797483E+00
  2.23226215E+00 -2.42176943E-01  4.19637338E-01 -3.54936837E-01  3.55083844E-02
  1.80005197E-01 -1.54223509E-01  1.79630034E-02  2.28269270E-01 -5.19173472E-01
 -1.83740347E-01  7.60242026E-02 -4.25973011E-01  3.34902190E-01 -3.33445638E-01
  5.01722683E-02 -1.18800734E-01 -3.77185845E-02  1.71868060E-01 -1.46711188E-01
  5.28240750E-03 -6.26740536E-02 -3.35133449E-02  6.29013812E-03 -3.26651541E-02
  2.81672605E-02  1.95139351E+00 -1.62554922E+00  1.65329416E-01  9.37067197E-01
 -8.35399699E-01  2.18290827E-01  7.77454567E-01 -6.57853165E-01 -4.62595791E-02
  2.45949191E-02  4.55261772E-01 -3.88776213E-01  4.68397259E-02  2.00371121E-01
 -1.70478987E-01  2.93279513E-03  2.26820485E-01 -1.92619744E-01  3.36572155E-02
 -2.50642954E-03  1.03454500E+00 -7.42591465E+00 -9.91323046E+00  2.71181774E+00
  1.88006463E+00  3.20727248E-02 -4.02486600E-01 -3.01395367E-01  1.22103273E+00
 -9.79910698E-01 -7.81975214E-01  3.01280498E+00  1.60226611E-01  1.23303607E-01
 -4.55445950E-01  6.52880009E-02  5.05223306E-02 -2.24623341E-01  3.40331662E+00
  3.29201727E+00  3.39894576E+00 -3.82932074E-01  2.55546464E-01  2.97512521E-01
  2.77302276E+00  2.81455679E+00  2.61060272E+00  7.82287480E-02  1.94641028E-02
  3.44727700E-03  6.08871558E-01  6.01440629E-01  6.48599162E-01 -1.26147294E-02
 -7.48883866E-03 -4.00655211E-03  5.41321605E-01  4.02201795E-01 -2.20195550E+00
  4.24576617E-01  2.83403893E-01 -1.00300011E+00  3.30150366E-01  2.46607525E-01
 -1.03213063E+00 -1.28445939E-01  1.81339217E-01  1.30871974E-01 -5.65239546E-01
  4.52561348E-02  3.72723822E-02 -2.50056516E-01  5.91753868E-02  3.93860273E-02
 -2.44796191E-01  2.69362737E-02  5.43709586E-01 -4.01213987E+00 -6.30647161E+00
  1.74593589E+00  1.10821321E+00  1.80196108E-02 -3.94766883E-01 -4.48778922E-01
 -3.18607976E-02 -9.84267726E-01 -1.16888021E+00 -9.82902275E-02  1.28974627E-01
  1.50615379E-01  6.73539457E-02  8.25552581E-02  9.83586345E-02 -2.08173068E-03
  2.27157667E+00  2.38620211E+00  1.20590492E+00  2.95760051E-01  1.72060465E-01
  1.56175736E-01  1.54266255E+00  1.49876864E+00  1.86600776E+00 -1.31523041E-01
 -2.60270138E-02 -2.06059352E-02  3.71103073E-01  3.78602020E-01  3.16268795E-01
  2.38599256E-02  1.04806630E-03 -5.14101631E-04  7.41437123E-01  8.02809307E-01
  2.80467664E-02  1.01333907E-01  2.39012312E-01  2.60318082E-01  6.29931933E-01
  7.25619950E-01  2.73878144E-01 -1.44059156E-02  2.08881157E-01  2.61527858E-01
  7.35237083E-02  1.34969971E-01  1.38786519E-01 -1.67416160E-02  4.10813446E-02
  5.34540150E-02 -1.94779316E-02  1.58702805E-03  1.46418023E+00 -1.18850429E+01
 -2.39066088E+01  5.77576888E+00  4.23170603E+00  7.75157295E-02 -1.81343676E-02
 -2.96880394E-02 -7.84697927E-02  7.25874476E-01  6.88841885E-01 -1.96574362E+00
 -3.28352956E-02 -2.63298463E-02  1.14953740E-01 -5.57343567E-02 -5.22615358E-02
  1.60100239E-01  6.56560968E+00  6.61313425E+00  6.73960507E+00  2.04141209E-01
 -2.19388265E-01 -2.44053325E-01  5.97358774E+00  5.95303138E+00  6.01150813E+00
 -7.85068946E-02  7.73463590E-02  9.17539051E-02  1.38062991E+00  1.38506185E+00
  1.36429875E+00  1.48178477E-02 -1.20152662E-02 -1.49688248E-02  7.30503844E-02
  9.65726142E-03  9.71246455E-01 -3.83091662E-01 -2.26846700E-01  2.92583581E-01
 -2.97618564E-01 -2.91821393E-01  3.43523681E-01  2.69349831E-01 -1.50711256E-01
 -1.20272844E-01  2.76834207E-01  9.21093357E-03 -1.16368064E-02  1.59330417E-01
 -7.57975614E-03 -1.28034299E-03  1.52948755E-01 -4.16504568E-02  8.12778143E-01
 -6.70505891E+00 -1.41750066E+01  3.97252670E+00  2.17828707E+00  5.25771551E-02
  3.61074546E-01  4.13336649E-01 -4.71198962E-01  2.13371774E+00  2.47344908E+00
 -2.62149905E+00 -2.50126994E-01 -2.91151232E-01  2.98867558E-01 -1.55414752E-01
 -1.79349746E-01  1.96814061E-01  3.90286384E+00  3.83599409E+00  3.88097783E+00
 -2.35592590E-01  2.07187719E-01  2.43486843E-01  3.24216971E+00  3.30736951E+00
  3.24261111E+00  2.24676807E-01 -2.14504699E-01 -2.52947150E-01  7.02583485E-01
  6.92649581E-01  6.95278328E-01 -3.65392697E-02  3.88577517E-02  4.49451195E-02
 -1.67690124E+00 -1.77468236E+00  1.64007981E+00 -2.76519865E-01 -5.39725378E-01
  7.89949146E-01 -5.17225765E-01 -6.09748350E-01  7.20752372E-01 -2.72628110E-01
 -2.83425436E-01 -3.49973438E-01  4.52291668E-01 -1.94826439E-01 -1.93307776E-01
  1.79613619E-01 -1.69321092E-01 -1.93258937E-01  1.85634865E-01  3.22291424E-02
  1.03173957E-04 -1.11112587E-03 -5.79949122E-03  3.91117410E-04  1.39689832E-03
 -2.57910127E-05 -1.42392955E-04  1.52554304E-03  3.01561121E-05 -6.14040420E-04
  2.62331678E-02 -8.13505632E-05 -1.40353975E-03 -4.21872419E-03 -5.62191304E-05
  2.53444832E-04 -1.18193379E-03 -1.95886329E-05 -2.49707717E-02  2.50913933E-02
  2.40651137E-03 -7.47199223E-03 -1.92456090E-03  6.97301845E-04  2.42743791E-03
  4.61514687E-03 -2.51393872E-03  1.62478061E-03 -2.38683816E-02  1.90189126E-02
 -1.64455904E-04 -1.08174966E-04  1.12803689E-03 -5.04256251E-04  4.77021103E-03
 -3.78164339E-03 -5.88283650E-02 -3.39465029E-01  6.14132216E-02 -3.64694488E-01
  6.91967561E-01  5.77264824E-01  4.37800365E-01 -2.62729470E-01 -6.60366060E-01
  2.49791899E-01  6.55913360E-03  5.57621914E-02 -1.03699733E-02  6.14255413E-02
 -1.19881273E-01 -9.93631391E-02 -7.23747719E-02  4.03693232E-02  1.12796916E-01
 -4.26016755E-02 -1.58897151E-02  1.45800025E-01  4.85151430E-01 -3.89005268E-02
 -1.15743059E-01 -7.38029944E-04 -5.54819012E-03 -5.54295162E-03  4.77146339E-03
 -1.90890329E-01 -2.23972437E-01  1.27908741E-01  3.61660220E-02  4.40654313E-02
 -1.12384808E-02  7.45538692E-03  8.26482818E-03 -9.12482891E-03 -1.15199310E-01
 -9.80498939E-02 -8.63430624E-02  3.22260475E-02  3.53590515E-02  4.05700144E-02
 -1.33479179E-01 -1.44420067E-01 -1.28948655E-01 -2.18529009E-02 -1.49904223E-02
 -1.37671998E-02 -3.70719283E-02 -3.40008043E-02 -3.72079116E-02  6.75963350E-03
  2.42918747E-03  2.12180035E-03  5.80832688E-01  4.91637933E-01 -4.22688693E-01
 -3.79250913E-01  2.05955664E-04  4.39634404E-01 -2.03675174E-01 -4.28226500E-01
  9.10026890E-03 -7.33408595E-01 -6.48714866E-02 -4.41421123E-02  4.22522838E-02
  7.87737512E-02  1.74379000E-02 -8.56603587E-02  5.07325200E-02  9.10790523E-02
 -1.29142853E-02  1.23069812E-01  7.26089206E-04 -7.36419006E-03 -2.69440924E-02
 -2.17294640E-03  8.33974437E-03  1.07062539E-04 -5.03734076E-02  4.59908607E-02
 -2.24340707E-04 -7.81954655E-01  6.97195761E-01 -2.39683102E-02  1.06966457E-01
 -9.55308809E-02  3.91530211E-03  4.74773559E-02 -4.23002008E-02  1.23518624E-03
  1.87918554E-01 -1.80756816E-01  7.74384174E-03  4.99455664E-02  1.09130699E-01
 -8.00292451E-02 -2.27109768E-01  2.46282266E-01  4.34536843E-03 -5.91704319E-02
 -7.00181677E-02  4.58650653E-02  5.64822691E-02 -5.21451951E-02  3.39565946E-03
  1.34498007E-02  1.46660701E-02 -9.34690831E-03  1.05184671E+00 -1.16326683E+00
 -4.05834212E-02 -8.40234034E-03  3.77407887E-01 -4.99695363E-02 -5.02249729E-01
  3.79133071E-01  1.31761128E-01 -3.75354388E-02 -1.60847128E-03  4.23605093E-02
  1.18714634E-02  8.42773877E-02 -1.41201724E-01  1.22887156E-02  1.60280675E-01
 -1.31693324E-01 -2.09543096E-02  6.09615889E-03 -7.32027709E-02  6.84275527E-01
  2.68720759E+00 -2.09905571E-01 -6.30554195E-01 -3.87527122E-03 -5.84470749E-03
  2.22587461E-02  1.18842787E-01 -7.21810959E-01 -3.23997701E-01  2.40592232E+00
  1.34967052E-01  1.16463272E-01 -3.12621239E-01  2.84201930E-02 -5.49389297E-03
 -1.46243425E-01 -4.41732105E-01 -3.30932388E-01 -7.16747438E-01 -8.06350033E-02
 -3.33932601E-02 -1.92530367E-01 -7.68091545E-01 -9.03676345E-01 -5.76128687E-01
  7.85088221E-02  7.29283408E-02  2.36639284E-01 -1.95224991E-01 -1.64201326E-01
 -2.35889774E-01 -1.16363514E-02 -2.25958006E-02 -5.91300819E-02  5.24359559E-01
  1.73824514E-01 -3.07337220E-01 -6.27417281E-02 -2.56271016E-01 -9.04909361E-01
  9.81835115E-02  3.12754056E-01 -1.35352738E+00 -3.07546298E-01  4.47209810E-02
  8.26591662E-03 -4.57799397E-01  6.51522379E-02  5.96309593E-02 -8.75474302E-02
  4.11402371E-02 -2.99391721E-02 -1.11675907E-02  5.02438389E-02 -2.65657060E-02
  2.45070824E-01  9.15206370E-01 -9.14758908E-02 -2.05988861E-01 -1.46868939E-03
  6.86613742E-02 -3.74951105E-02  2.43242614E-02  1.03412921E+00 -9.87300506E-01
  6.54230346E-01 -7.17967447E-02  1.09332210E-01 -8.57582295E-02 -8.11292922E-02
  6.33914405E-02 -3.90615120E-02  1.45290732E-01 -4.14470977E-01 -2.41521521E-01
  4.45422994E-02 -2.75112249E-01  1.69880635E-01 -6.07338257E-01  3.96139755E-02
 -1.92367476E-01 -5.45474967E-02  2.73312789E-01 -1.58922792E-01  1.04537582E-02
 -1.28252394E-01 -7.86206160E-02  1.31553419E-02 -5.99234282E-02  3.16941939E-02
 -5.30465256E-01  3.78707060E-01 -5.15194908E-02 -6.61448146E-01  6.83061688E-01
 -9.15065316E-01  2.09671748E-01 -1.25164936E-01  2.65344264E-01 -2.01552786E-01
 -1.46962452E-01  1.45973994E-01 -1.26259204E-01  7.74123239E-03 -2.89000894E-02
  9.14312901E-02 -1.30144718E-01  1.05839007E-01 -1.10773283E-01  3.46889230E-02
 -1.29722254E-01  1.22365520E+00  4.54535738E+00 -6.60192139E-01 -9.17843532E-01
 -9.67961731E-03 -2.59666635E-01 -3.54946840E-01 -3.89137223E-01 -5.40901811E+00
 -7.30525409E+00 -7.06097920E+00  6.64519350E-01  8.91869800E-01  7.96416073E-01
  3.37679631E-01  4.58387764E-01  4.69209834E-01 -9.38859103E-01 -1.12545515E+00
 -5.25311593E-01 -5.14641128E-01  9.15474405E-02  1.21663161E-01 -1.07956126E+00
 -8.15276488E-01 -1.77382230E+00  7.29257686E-01 -1.32854968E-01 -1.84783883E-01
 -3.21179461E-01 -3.70720784E-01 -1.98760700E-01 -1.37727798E-01  2.67802635E-02
  3.61630721E-02  2.94180707E+00  3.77694418E+00  3.66992102E+00  8.67359511E-01
  1.45083501E+00  1.64562505E+00  1.34828434E+00  1.82065228E+00  1.68485411E+00
  1.27790527E-01  6.64592001E-01  9.33352983E-01  9.61098303E-01  3.61872700E-01
  4.50747298E-01  4.33660949E-01  2.89627714E-01  3.93292900E-01  4.28526381E-01
 -1.58428915E-02  3.58237771E-01 -3.26039055E+00 -1.09032368E+01  2.08036190E+00
  1.97788872E+00  2.89195700E-02 -7.81445733E-02 -1.99137357E-01  6.06604216E-01
 -7.14782473E-01 -3.01589219E+00  1.02311742E+01  9.35003354E-02  3.61165175E-01
 -1.17945212E+00  4.24635548E-02  1.92527249E-01 -6.67944301E-01  2.33755389E+00
  2.21148288E+00  1.96274167E+00 -3.19204781E-01  3.83182706E-01  4.69564770E-01
  2.52082173E+00  2.71603654E+00  3.05536084E+00  4.27127028E-01 -5.20164004E-01
 -6.62124504E-01  6.99624631E-01  6.64188917E-01  6.07127806E-01 -8.37622256E-02
  9.55966270E-02  1.20767866E-01  5.76254596E-01  1.73092932E+00 -5.30295388E+00
  6.32385257E-02  6.47023622E-01 -2.40241954E+00 -2.84113042E-02  4.94300979E-01
 -2.35217423E+00  2.75405009E-01  5.31775211E-02  3.67439004E-01 -1.34443261E+00
  5.19334125E-02  1.82485656E-01 -6.05574074E-01  5.61584719E-02  1.94634917E-01
 -6.12497265E-01 -3.73914896E-02  5.91878946E-02 -5.43093470E-01 -1.74736090E+00
  3.23927256E-01  3.23608998E-01  4.86701437E-03 -6.39764821E-01  4.75052713E-01
  4.22083308E-02 -1.20375580E+01  9.17076943E+00  5.87728746E-01  1.39592120E+00
 -1.05695604E+00 -7.01131013E-02  7.86464242E-01 -6.01467210E-01 -3.74360571E-02
  2.15457517E-01  5.04424342E-01  3.49477478E-01 -7.03662619E-02  1.53043937E-01
 -4.74134375E-02  7.60356423E-01  1.31693881E-01  4.45973255E-01  1.17888654E-01
 -3.40323237E-01  1.69042917E-01  6.32526443E-02  1.51550170E-01  1.07504660E-01
 -1.91115303E-02  5.61150514E-02 -2.55786383E-02  6.25932940E+00 -4.75586114E+00
 -2.96668206E-01  2.71261236E+00 -2.04299959E+00 -2.78143045E-01  2.87527376E+00
 -2.22941141E+00 -1.39409402E-02  3.06664178E-03  1.61820396E+00 -1.23977393E+00
 -7.61753959E-02  7.38018069E-01 -5.68649633E-01 -8.10639613E-03  7.07221136E-01
 -5.37003456E-01 -5.59949661E-02  7.36976344E-04 -1.18803221E+00  1.12299569E+01
  4.35967314E+01 -8.09583547E+00 -7.85420552E+00 -9.94649435E-02  2.19669253E-01
  2.90913434E-01  7.59538755E-02  4.01703361E+00  5.34748574E+00  1.26298416E+00
 -3.75933597E-01 -4.97991398E-01 -9.01750429E-02 -2.87076258E-01 -3.83949405E-01
 -1.09909148E-01 -8.11877013E+00 -8.19967597E+00 -8.15059367E+00 -2.84014093E-01
  1.14292031E-01  1.46158215E-01 -1.11210242E+01 -1.10513093E+01 -1.11241282E+01
  2.70661188E-01 -5.45132790E-02 -8.79331942E-02 -2.60715174E+00 -2.62484225E+00
 -2.59533225E+00 -6.22636695E-02  8.50867061E-03  1.48428014E-02 -1.92785525E+00
 -2.71783089E+00 -6.15095682E-01 -1.21349817E+00 -1.40976891E+00 -2.68944456E-01
 -1.01420453E+00 -1.32697352E+00 -2.07668742E-01  2.30011631E-01 -5.90091915E-01
 -7.76984505E-01 -2.44183958E-01 -2.32446121E-01 -3.29855529E-01 -1.15382868E-01
 -2.36815063E-01 -3.22592053E-01 -1.22868439E-01 -3.21628635E-02 -9.06716949E-03
  8.65781712E-02  3.40259623E-01 -9.52325718E-02 -4.65946501E-02 -1.19927722E-04
 -2.96664104E-02  4.65940298E-03 -1.03612406E-02 -7.06765746E-01  2.88764578E-01
 -1.13619046E-01  9.21304358E-02 -2.91482642E-02  5.33367669E-03  4.11357883E-02
 -1.80910504E-02  1.09949835E-02 -5.41582925E-01  3.07211325E-01  4.38894302E-02
  5.49160453E-02 -4.81528556E-01  5.45592539E-01  8.45295347E-01 -7.91018566E-01
 -3.02266611E-01 -9.49570451E-02  9.04678023E-01 -1.02326255E+00 -1.96125278E-01
  1.24746927E-01  2.70250686E-02  1.97340891E-02 -1.77388077E-01  2.00305483E-01
  4.71224940E-01 -2.46322599E-01  1.04087806E-01  1.26419667E-01  7.80266562E-04
  1.73798843E-02  6.96024299E-02 -7.66239408E-03 -2.09172351E-02 -7.36455319E-04
  2.05817043E-02  2.90325073E-02  8.23996779E-03  6.09614392E-02 -4.13089052E-02
  6.79603812E-03  8.73167237E-02 -5.81980737E-02  3.93103498E-02 -6.35734731E-04
  8.62975437E-02 -8.20574770E-01 -3.21274460E+00  7.04845794E-01  5.28814913E-01
  5.02185835E-03  9.09086516E-03  2.58725853E-02  2.08866667E-02 -1.75673469E-02
  4.31469762E-01  2.57841419E-01 -2.36009374E-02 -8.36664477E-02 -3.52961639E-03
  7.54776077E-03 -1.80237578E-02 -2.78414242E-02  8.20167430E-01  8.50056031E-01
  1.30637086E-01 -5.65505031E-01 -4.15534218E-01 -2.21785077E-01  3.71893905E-01
  3.01673592E-01  1.73767646E+00  1.06876160E+00  7.71190172E-01  4.11137747E-01
  2.56016736E-01  2.68844016E-01 -7.45457632E-03 -2.11901045E-01 -1.50750506E-01
 -8.00327717E-02 -3.65526337E-02 -2.99486040E-01 -2.95642003E-01  5.66409588E-02
 -4.58342211E-02  4.44010488E-02  1.39399525E-02 -5.36047126E-02  4.28136710E-02
  1.93594695E-03  2.47369107E-02 -1.23146611E-02  6.21193439E-03 -4.20874552E-02
 -5.91276729E-02 -7.90206591E-02  1.73256664E-02 -2.59485084E-02 -7.35076313E-02
 -4.34193126E-03 -5.32163798E-03  4.93740746E-02  2.03964586E-01 -2.31893728E-02
 -4.34199777E-02 -6.01476139E-04 -1.58685196E-01  1.18871726E-01 -1.36877582E-02
 -4.78213155E+00  3.60584687E+00 -3.12563123E-01  3.89006137E-01 -2.90016640E-01
  2.91470422E-02  3.58664283E-01 -2.71173583E-01  2.22358552E-02  5.02982807E-01
 -5.33621775E-01 -7.78666981E-02  1.25715272E-01 -3.11387313E-01  2.81286988E-01
 -1.15188207E+00  9.73847690E-01  1.48591101E-02 -2.54091417E-01  6.15217412E-01
 -5.51012453E-01  2.11512785E-01 -2.26557809E-01 -2.88029784E-02  5.31211320E-02
 -1.23587080E-01  1.11000742E-01  2.30256291E+00 -1.64553170E+00  1.64174607E-01
  1.18880369E+00 -1.01618184E+00  2.51062893E-01  1.05020802E+00 -7.88896006E-01
 -1.10840194E-01  3.79251480E-02  7.76806250E-01 -6.43655976E-01  4.64331775E-02
  2.43270940E-01 -9.30672514E-02 -1.10806969E-01  3.32642862E-01 -2.64310705E-01
  1.46792806E-01 -2.59606635E-02  3.88502270E-01 -3.72595417E+00 -1.54612468E+01
  2.28510375E+00  3.03178312E+00  4.29120952E-02  1.85103190E-01  2.36743024E-01
  1.57490698E-01  3.83801852E+00  5.10767294E+00  4.58889685E+00 -3.42445624E-01
 -4.53081112E-01 -4.50779172E-01 -2.89744859E-01 -3.84482379E-01 -3.06870517E-01
  2.50914107E+00  2.35290604E+00  3.52903096E+00 -3.04304367E-01 -2.61009968E-01
 -2.59695011E-01  4.43024758E+00  4.67988359E+00  2.86777673E+00  4.46834072E-01
  4.22849899E-01  4.17055237E-01  9.27863538E-01  8.71210413E-01  1.24725976E+00
 -1.07451565E-01 -8.13403655E-02 -8.00045335E-02 -1.92599738E+00 -2.60786702E+00