Gly.e+-localize-molden.E-.fchk                                                                      
        SP                           RHF                        6-311G
Number of electrons                        I               40
Number of alpha electrons                  I               20
Number of beta electrons                   I               20
Number of atoms                            I               10
Number of basis functions                  I               80
Number of independent functions            I               80
Atomic numbers                             I   N=          10
           7           6           6           8           8           1
           1           1           1           1
Current cartesian coordinates              R   N=          30
  1.60830433E+00  7.16270452E-01  1.01799357E+00  2.20493244E-02 -1.35035294E+00
  2.08228733E+00  3.04208112E-02 -1.26357671E+00  4.98152405E+00  1.34943075E+00
  3.81259805E-01  5.96059115E+00 -1.29605355E+00 -2.87424698E+00  6.00118247E+00
  3.43253255E+00  4.98347236E-01  1.51385771E+00  7.74783932E-01 -3.12752697E+00
  1.41944699E+00 -1.87619947E+00 -1.12086460E+00  1.37229833E+00  9.97713034E-01
  2.40331967E+00  1.66891541E+00  1.48876215E+00  7.12073371E-01 -8.86814456E-01
Shell types                                I   N=          50
           0           0           1           0           1           0
           1           0           0           1           0           1
           0           1           0           0           1           0
           1           0           1           0           0           1
           0           1           0           1           0           0
           1           0           1           0           1           0
           0           0           0           0           0           0
           0           0           0           0           0           0
           0           0
Shell to atom map                          I   N=          50
           1           1           1           1           1           1
           1           2           2           2           2           2
           2           2           3           3           3           3
           3           3           3           4           4           4
           4           4           4           4           5           5
           5           5           5           5           5           6
           6           6           7           7           7           8
           8           8           9           9           9          10
          10          10
Coordinates of each shell                  R   N=         150
  1.60830433E+00  7.16270452E-01  1.01799357E+00  1.60830433E+00  7.16270452E-01
  1.01799357E+00  1.60830433E+00  7.16270452E-01  1.01799357E+00  1.60830433E+00
  7.16270452E-01  1.01799357E+00  1.60830433E+00  7.16270452E-01  1.01799357E+00
  1.60830433E+00  7.16270452E-01  1.01799357E+00  1.60830433E+00  7.16270452E-01
  1.01799357E+00  2.20493244E-02 -1.35035294E+00  2.08228733E+00  2.20493244E-02
 -1.35035294E+00  2.08228733E+00  2.20493244E-02 -1.35035294E+00  2.08228733E+00
  2.20493244E-02 -1.35035294E+00  2.08228733E+00  2.20493244E-02 -1.35035294E+00
  2.08228733E+00  2.20493244E-02 -1.35035294E+00  2.08228733E+00  2.20493244E-02
 -1.35035294E+00  2.08228733E+00  3.04208112E-02 -1.26357671E+00  4.98152405E+00
  3.04208112E-02 -1.26357671E+00  4.98152405E+00  3.04208112E-02 -1.26357671E+00
  4.98152405E+00  3.04208112E-02 -1.26357671E+00  4.98152405E+00  3.04208112E-02
 -1.26357671E+00  4.98152405E+00  3.04208112E-02 -1.26357671E+00  4.98152405E+00
  3.04208112E-02 -1.26357671E+00  4.98152405E+00  1.34943075E+00  3.81259805E-01
  5.96059115E+00  1.34943075E+00  3.81259805E-01  5.96059115E+00  1.34943075E+00
  3.81259805E-01  5.96059115E+00  1.34943075E+00  3.81259805E-01  5.96059115E+00
  1.34943075E+00  3.81259805E-01  5.96059115E+00  1.34943075E+00  3.81259805E-01
  5.96059115E+00  1.34943075E+00  3.81259805E-01  5.96059115E+00 -1.29605355E+00
 -2.87424698E+00  6.00118247E+00 -1.29605355E+00 -2.87424698E+00  6.00118247E+00
 -1.29605355E+00 -2.87424698E+00  6.00118247E+00 -1.29605355E+00 -2.87424698E+00
  6.00118247E+00 -1.29605355E+00 -2.87424698E+00  6.00118247E+00 -1.29605355E+00
 -2.87424698E+00  6.00118247E+00 -1.29605355E+00 -2.87424698E+00  6.00118247E+00
  3.43253255E+00  4.98347236E-01  1.51385771E+00  3.43253255E+00  4.98347236E-01
  1.51385771E+00  3.43253255E+00  4.98347236E-01  1.51385771E+00  7.74783932E-01
 -3.12752697E+00  1.41944699E+00  7.74783932E-01 -3.12752697E+00  1.41944699E+00
  7.74783932E-01 -3.12752697E+00  1.41944699E+00 -1.87619947E+00 -1.12086460E+00
  1.37229833E+00 -1.87619947E+00 -1.12086460E+00  1.37229833E+00 -1.87619947E+00
 -1.12086460E+00  1.37229833E+00  9.97713034E-01  2.40331967E+00  1.66891541E+00
  9.97713034E-01  2.40331967E+00  1.66891541E+00  9.97713034E-01  2.40331967E+00
  1.66891541E+00  1.48876215E+00  7.12073371E-01 -8.86814456E-01  1.48876215E+00
  7.12073371E-01 -8.86814456E-01  1.48876215E+00  7.12073371E-01 -8.86814456E-01
Number of primitives per shell             I   N=          50
           6           3           3           1           1           1
           1           6           3           3           1           1
           1           1           6           3           3           1
           1           1           1           6           3           3
           1           1           1           1           6           3
           3           1           1           1           1           3
           1           1           3           1           1           3
           1           1           3           1           1           3
           1           1
Primitive exponents                        R   N=         105
  6.29348000E+03  9.49044000E+02  2.18776000E+02  6.36916000E+01  1.88282000E+01
  2.72023000E+00  3.06331000E+01  7.02614000E+00  2.11205000E+00  3.06331000E+01
  7.02614000E+00  2.11205000E+00  6.84009000E-01  6.84009000E-01  2.00878000E-01
  2.00878000E-01  4.56324000E+03  6.82024000E+02  1.54973000E+02  4.44553000E+01
  1.30290000E+01  1.82773000E+00  2.09642000E+01  4.80331000E+00  1.45933000E+00
  2.09642000E+01  4.80331000E+00  1.45933000E+00  4.83456000E-01  4.83456000E-01
  1.45585000E-01  1.45585000E-01  4.56324000E+03  6.82024000E+02  1.54973000E+02
  4.44553000E+01  1.30290000E+01  1.82773000E+00  2.09642000E+01  4.80331000E+00
  1.45933000E+00  2.09642000E+01  4.80331000E+00  1.45933000E+00  4.83456000E-01
  4.83456000E-01  1.45585000E-01  1.45585000E-01  8.58850000E+03  1.29723000E+03
  2.99296000E+02  8.73771000E+01  2.56789000E+01  3.74004000E+00  4.21175000E+01
  9.62837000E+00  2.85332000E+00  4.21175000E+01  9.62837000E+00  2.85332000E+00
  9.05661000E-01  9.05661000E-01  2.55611000E-01  2.55611000E-01  8.58850000E+03
  1.29723000E+03  2.99296000E+02  8.73771000E+01  2.56789000E+01  3.74004000E+00
  4.21175000E+01  9.62837000E+00  2.85332000E+00  4.21175000E+01  9.62837000E+00
  2.85332000E+00  9.05661000E-01  9.05661000E-01  2.55611000E-01  2.55611000E-01
  3.38650000E+01  5.09479000E+00  1.15879000E+00  3.25840000E-01  1.02741000E-01
  3.38650000E+01  5.09479000E+00  1.15879000E+00  3.25840000E-01  1.02741000E-01
  3.38650000E+01  5.09479000E+00  1.15879000E+00  3.25840000E-01  1.02741000E-01
  3.38650000E+01  5.09479000E+00  1.15879000E+00  3.25840000E-01  1.02741000E-01
  3.38650000E+01  5.09479000E+00  1.15879000E+00  3.25840000E-01  1.02741000E-01
Contraction coefficients                   R   N=         105
  1.96979000E-03  1.49613000E-02  7.35006000E-02  2.48937000E-01  6.02460000E-01
  2.56202000E-01  1.11906000E-01  9.21666000E-01 -2.56919000E-03  3.83119000E-02
  2.37403000E-01  8.17592000E-01  1.00000000E+00  1.00000000E+00  1.00000000E+00
  1.00000000E+00  1.96665000E-03  1.52306000E-02  7.61269000E-02  2.60801000E-01
  6.16462000E-01  2.21006000E-01  1.14660000E-01  9.19999000E-01 -3.03068000E-03
  4.02487000E-02  2.37594000E-01  8.15854000E-01  1.00000000E+00  1.00000000E+00
  1.00000000E+00  1.00000000E+00  1.96665000E-03  1.52306000E-02  7.61269000E-02
  2.60801000E-01  6.16462000E-01  2.21006000E-01  1.14660000E-01  9.19999000E-01
 -3.03068000E-03  4.02487000E-02  2.37594000E-01  8.15854000E-01  1.00000000E+00
  1.00000000E+00  1.00000000E+00  1.00000000E+00  1.89515000E-03  1.43859000E-02
  7.07320000E-02  2.40001000E-01  5.94797000E-01  2.80802000E-01  1.13889000E-01
  9.20811000E-01 -3.27447000E-03  3.65114000E-02  2.37153000E-01  8.19702000E-01
  1.00000000E+00  1.00000000E+00  1.00000000E+00  1.00000000E+00  1.89515000E-03
  1.43859000E-02  7.07320000E-02  2.40001000E-01  5.94797000E-01  2.80802000E-01
  1.13889000E-01  9.20811000E-01 -3.27447000E-03  3.65114000E-02  2.37153000E-01
  8.19702000E-01  1.00000000E+00  1.00000000E+00  1.00000000E+00  1.00000000E+00
  2.54938000E-02  1.90373000E-01  8.52161000E-01  1.00000000E+00  1.00000000E+00
  2.54938000E-02  1.90373000E-01  8.52161000E-01  1.00000000E+00  1.00000000E+00
  2.54938000E-02  1.90373000E-01  8.52161000E-01  1.00000000E+00  1.00000000E+00
  2.54938000E-02  1.90373000E-01  8.52161000E-01  1.00000000E+00  1.00000000E+00
  2.54938000E-02  1.90373000E-01  8.52161000E-01  1.00000000E+00  1.00000000E+00
Alpha Orbital Energies                     R   N=          80
 -2.06175360E+01 -2.06111886E+01 -1.58585151E+01 -1.14865987E+01 -1.14447108E+01
 -1.54202121E+00 -1.48872460E+00 -1.42353119E+00 -1.14872107E+00 -9.54429132E-01
 -9.50727795E-01 -8.63261494E-01 -8.09767916E-01 -7.66092939E-01 -7.59420958E-01
 -7.14765698E-01 -6.71423993E-01 -5.38417222E-01 -5.30634877E-01 -5.10957067E-01
 -3.36744369E-02  3.08281661E-02  3.55618831E-02  4.59960466E-02  7.12484269E-02
  1.32138541E-01  1.80139174E-01  2.39771151E-01  2.93048555E-01  2.98233292E-01
  3.15632563E-01  3.46872380E-01  4.33149765E-01  4.59216701E-01  4.93852372E-01
  5.09411224E-01  5.69772059E-01  6.17256523E-01  6.26289644E-01  6.40359195E-01
  7.21073509E-01  7.22641234E-01  7.27894121E-01  7.68840566E-01  7.84545527E-01
  9.07320688E-01  9.59293541E-01  1.01045356E+00  1.03159817E+00  1.12693741E+00
  1.13426600E+00  1.14000812E+00  1.40045420E+00  1.70382999E+00  1.84937038E+00
  2.30053670E+00  2.34919303E+00  2.37925924E+00  2.42793992E+00  2.44478295E+00
  2.81090764E+00  2.92065703E+00  3.00647707E+00  3.06852636E+00  3.19669564E+00
  3.31290031E+00  4.11734709E+00  4.14374374E+00  4.21647881E+00  5.27493258E+00
  5.32179697E+00  5.39125505E+00  5.39904974E+00  5.43485116E+00  5.49141426E+00
  2.43005106E+01  2.44846776E+01  3.65019440E+01  5.14648344E+01  5.15609859E+01
Alpha MO coefficients                      R   N=        6400
  2.31187962E-09  5.11811991E-06  8.43964137E-07 -2.97986369E-07  5.46021634E-06
 -4.49846467E-05  9.73484200E-07  5.30362677E-06 -2.32830771E-05  2.17129191E-04
 -4.24928474E-05 -7.53756354E-05  5.82522610E-05  2.10196015E-07  8.46437201E-06
  1.09185652E-05  1.36244667E-05  4.68652205E-06 -2.09314814E-05 -3.84109006E-05
 -4.87762213E-05 -4.24737458E-05  8.13828628E-06 -1.34140333E-04 -1.52233672E-04
  1.49246874E-04  2.63691178E-06 -6.53245481E-05  7.37342849E-05  9.21632888E-05
  6.77248498E-05  2.71107300E-04  1.14103207E-04  1.41971231E-04  4.57691058E-05
  1.46527404E-04  3.03639599E-04  3.74954042E-04  3.11313915E-04  5.51449391E-01
  4.71671220E-01 -1.31383630E-03 -1.63157894E-03 -1.16938329E-03  5.58277739E-03
  4.41442184E-04  5.47238681E-04  3.97428869E-04 -8.10125282E-04 -2.31665849E-05
 -2.64754073E-05 -4.65903845E-05 -1.67665972E-03 -1.43037183E-03 -7.83860222E-06
 -9.44270849E-06 -1.47017578E-07 -3.90945986E-05 -5.88468145E-07 -1.48845118E-06
  3.76626752E-06  1.26412724E-04 -3.78387168E-05 -4.71713054E-05 -1.36634165E-04
  9.68283675E-06 -7.31272625E-05  4.94034589E-05 -7.11417934E-06  9.48106644E-06
 -1.29598329E-06 -7.24343667E-06  2.70108490E-06 -3.63702219E-06  7.31942123E-06
 -6.40931956E-05  5.37565244E-05 -7.67715758E-06 -1.90196759E-06  1.27610093E-05
  1.83656242E-07 -1.79591904E-06  3.98222568E-06  5.37177237E-06 -7.57414388E-06
  4.30554881E-06 -1.19957617E-05 -1.57314099E-05  2.89585551E-05  1.00530899E-04
 -2.64008343E-05 -3.14548359E-05 -1.12471488E-04  1.56357281E-07 -1.23350029E-05
  1.02009853E-05  1.29998866E-05 -6.51746745E-06  7.19367441E-05 -2.73404699E-05
 -3.36211914E-05  4.92108308E-05 -3.59997907E-04 -7.40855589E-05 -8.91302885E-05
 -7.63269237E-05 -2.04833470E-06  6.39426972E-05  7.61275058E-05  9.22406087E-05
 -6.70809317E-05 -2.77493135E-04  1.00035521E-04  1.22031086E-04 -5.48046034E-05
 -7.26402014E-05  3.49931055E-04  4.21188440E-04 -3.73788558E-04 -1.68012893E-03
 -1.44216743E-03  1.04800770E-06  1.42343165E-06  6.62362189E-06  1.62211530E-05
 -7.34854943E-06 -9.14036810E-06 -6.43956874E-06 -1.76173642E-04 -3.18489753E-05
 -3.56204845E-05  1.51746520E-04 -5.51436392E-01 -4.71665286E-01 -1.32067166E-03
 -1.60113523E-03  1.02950144E-03 -5.63995791E-03  4.39476289E-04  5.32378108E-04
 -3.45425104E-04  8.56524851E-04 -1.27632944E-05 -1.42333286E-05  2.71343853E-05
 -1.37655251E-06  1.85380865E-05 -5.25797446E-06 -1.41346116E-05  6.46087869E-05
 -1.53313907E-05 -1.39599915E-05  6.19081862E-05 -1.89454583E-05  5.86050332E-08
  1.52233145E-05 -4.46180024E-06  6.77215303E-06 -7.36228629E-05 -7.79567720E-06
  5.57588052E-01  4.68164688E-01  1.29665459E-04  1.77165516E-04 -2.54310503E-04
  5.53505325E-03 -7.19438963E-05 -9.62374843E-05  1.33038178E-04 -1.31039110E-03
  1.56357820E-04  2.02480056E-04 -1.91680593E-04  5.31047592E-06 -8.94225770E-06
  4.98347219E-05  6.49423808E-05 -3.25945098E-05  5.64853830E-05  6.72087408E-05
  8.70171088E-05 -4.64805175E-05  8.96536118E-04  1.68164876E-04  2.21462408E-04
  1.18960676E-05 -1.77765758E-07  5.09279060E-06  4.33707981E-09 -4.20297330E-07
  1.47089309E-06 -1.89142129E-05 -1.22462445E-05 -1.38217228E-05  2.08034949E-05
 -3.55356205E-04 -2.27774289E-05 -2.61690555E-05  1.73439705E-04  1.02882850E-06
  5.26036045E-06  1.60351031E-06  1.73829337E-06 -5.25412717E-06 -3.75342113E-05
 -6.90618322E-06 -8.54526532E-06  3.07679573E-05  1.01033354E-04 -7.18637652E-06
 -9.89721979E-06 -8.78080131E-05 -3.13019050E-07  1.09403569E-06 -8.09417941E-08
 -3.43079597E-07 -3.50926586E-06 -1.33776357E-05  2.83022860E-07  8.55272569E-07
  6.95000908E-06  4.57608025E-05  5.04830747E-06  4.27179191E-06 -4.92947518E-05
  2.29980469E-04  1.79715066E-04  4.93045665E-05 -6.00419440E-06 -1.06674312E-04
  1.59690492E-06 -5.77688093E-06 -1.06437503E-04  1.53387478E-06  2.27999237E-04
  1.83895839E-04  4.98760750E-05  2.42251956E-04  1.45558320E-04  3.13407985E-05
  1.91028197E-06  3.33954485E-06 -1.87134349E-06 -2.98462809E-06  1.97345886E-06
  3.82968894E-07  1.28571527E-05  1.78297452E-05 -2.97673915E-05 -1.80672711E-04
  3.86955571E-05  3.43183908E-05  1.89702257E-05  3.87101403E-03  3.15311674E-03
  1.17205668E-05  1.89146774E-05  1.42138139E-04  2.25617362E-04 -6.61427694E-06
 -3.35719153E-06  2.13691453E-04  9.31855819E-04  6.04403260E-05  1.00477750E-04
  3.79475595E-04  5.63331955E-01  4.66604485E-01  1.45392797E-05  1.93328678E-05
  1.04377645E-04  4.30710006E-03 -1.54918447E-07  1.49216827E-06  3.79950188E-05
 -1.13147054E-03 -1.87028052E-05 -9.49063229E-06  6.70137300E-04 -1.67799583E-04
 -2.70989265E-04 -1.33381993E-04 -1.66554349E-04 -9.59667432E-05  6.39147020E-04
 -3.98149184E-04 -4.96402035E-04 -2.68456148E-04 -6.67539108E-05  1.59920291E-04
  1.96702880E-04 -2.36884268E-05 -1.68508773E-04 -2.72665422E-04  1.33319826E-04
  1.62078218E-04 -1.00117259E-04  6.49058569E-04  4.01323424E-04  4.87739231E-04
 -2.82933684E-04 -9.91730912E-05 -1.61972186E-04 -1.99607840E-04 -1.73164784E-05
 -1.56962148E-06  5.45164962E-07 -8.77238310E-06 -2.67621757E-06 -8.67920663E-05
  8.21012908E-05 -3.32262315E-06 -8.79705838E-05  7.39249401E-05 -4.10763890E-06
  1.08632871E-05 -3.10300579E-06 -7.58342919E-06  7.04343112E-05 -7.26722751E-06
 -7.71522188E-05 -1.30399129E-04 -8.15504002E-05 -1.06690376E-04  5.58359866E-05
  3.26431779E-04 -1.84219913E-04 -2.43027348E-04  1.25093478E-04 -1.08077980E-06
  4.04622597E-05  5.76795810E-05 -1.42549410E-05  5.63324746E-01  4.66528671E-01
  7.26531603E-04  9.31192476E-04 -8.67888023E-04  4.51398990E-03 -3.82813513E-04
 -4.86158233E-04  4.88153208E-04 -1.51072613E-03  2.84033260E-04  3.57363909E-04
 -4.81515172E-04 -3.96467288E-03 -3.32540808E-03 -2.08976343E-05 -3.01898403E-05
 -1.43865988E-04  1.69992083E-04  7.67088681E-05  9.34810195E-05 -1.61307898E-04
  6.62234101E-04  2.46657764E-05  2.02277533E-05 -2.08385268E-04  5.07671106E-06
  9.44608151E-06 -1.31649155E-06 -1.55110684E-06  4.65702220E-06 -1.52675984E-05
  2.70598832E-05  3.45412363E-05  5.44182752E-05 -1.71168127E-04  2.41996742E-05
  3.07712065E-05  4.98239027E-05  4.49967577E-06  9.16043137E-06 -7.28001285E-06
 -8.96003161E-06  9.90948744E-06 -4.58629447E-05  1.04341300E-05  1.32071593E-05
  2.19952078E-05  7.70205072E-05 -9.00884971E-07 -3.74568785E-06 -6.31589036E-05
 -1.76758207E-05 -1.51746429E-05 -1.12494190E-05  3.55294460E-04  1.93229871E-04
  2.89270247E-04  3.55462523E-04  1.92213998E-04  2.95081042E-04 -1.67630490E-05
 -1.89088369E-05 -5.75958484E-06 -2.29585139E-05  1.90430310E-06 -1.09660772E-04
 -3.08133822E-02 -5.15790995E-02 -2.09132226E-03 -2.58754481E-03  3.60915801E-03
  1.39509120E-01 -2.46459277E-03 -2.90443861E-03  5.66244579E-03  1.18721902E-01
 -2.38286166E-03 -2.75626627E-03 -2.59801633E-04 -2.16338555E-02 -3.59151318E-02
  5.37918028E-03  7.42356393E-03  1.07548698E-02  9.25013758E-02  7.76912198E-03
  1.06536927E-02  1.52882648E-02  3.37002391E-02 -1.05309835E-03 -7.57848647E-04
  9.96857858E-03 -7.30580664E-02 -1.19866595E-01  2.94080029E-03  4.52211093E-03
  3.89615839E-02  3.23550813E-01  4.29232836E-03  6.18072219E-03  4.08632694E-02
 -1.02594253E-03  1.08886594E-03  1.09507998E-03 -2.15793005E-02 -6.77819182E-02
 -1.13323700E-01 -2.58571932E-02 -3.21635190E-02 -1.84830611E-02  3.19653806E-01
 -4.85896497E-02 -6.05547678E-02 -3.79835939E-02  2.44725711E-01 -1.96757165E-02
 -2.42312110E-02 -1.35364010E-02 -6.23076219E-02 -1.04153667E-01  2.45181700E-02
  2.98425754E-02 -1.57100788E-02  2.93229654E-01  4.61513289E-02  5.61004696E-02
 -3.31777676E-02  2.28404686E-01  1.91163735E-02  2.32684481E-02 -8.76533996E-03
  2.21500768E-02  7.30012313E-03 -3.16452742E-03  9.44719375E-03  5.53375700E-03
 -3.62124390E-04  9.51551748E-03  5.44243725E-03 -7.94161510E-04  2.23460451E-02
  7.36195279E-03 -3.05717813E-03  2.06471177E-02  4.79978221E-03 -1.52099557E-03
 -1.02345084E-01 -1.71265645E-01  1.23282058E-04  2.59959003E-04 -2.42752832E-03
  4.58053168E-01  3.69325226E-03  5.28689304E-03 -7.22114169E-03  4.63283559E-01
 -1.70544344E-02 -2.04058357E-02  2.96345601E-03 -2.89099258E-02 -4.84971474E-02
  1.84549232E-02  2.39433343E-02 -1.78120857E-02  1.30230602E-01  2.60680379E-02
  3.38487477E-02 -2.45910413E-02 -4.48526679E-02 -2.02651726E-02 -2.71692844E-02
  3.16976944E-03  2.09434261E-02  3.41610958E-02  9.39444661E-03  1.11401581E-02
 -2.56325920E-02 -9.15403731E-02  1.39751123E-02  1.65263506E-02 -3.43008286E-02
  2.49244927E-02 -5.68066057E-04 -2.28805195E-04 -7.46629969E-03  1.53916205E-02
  2.56916910E-02  7.26987061E-03  9.01959515E-03  1.22227664E-04 -7.16902673E-02
  1.42536190E-02  1.76995886E-02  5.46455713E-04 -6.29737871E-02  5.98859000E-03
  7.38297840E-03  6.80323520E-03  3.21382940E-02  5.36998129E-02 -1.15108365E-02
 -1.39950096E-02  7.21396015E-03 -1.50254939E-01 -2.18305850E-02 -2.65468404E-02
  1.39982175E-02 -1.24369326E-01 -8.10814772E-03 -9.78220547E-03  1.03885959E-02
  7.58136244E-02  2.11329499E-02 -3.17988567E-03  1.37037946E-02  1.75588272E-02
 -3.07742023E-03  1.37168657E-02  1.75787749E-02 -2.81319572E-03  7.51558845E-02
  2.02141459E-02 -3.59659264E-03  7.81377371E-02  1.98920199E-02 -3.26158508E-03
 -1.33429576E-02 -2.24385424E-02  4.11276248E-04  4.87574756E-04 -4.11910181E-03
  6.16155937E-02  1.24070683E-03  1.57094686E-03 -6.41323583E-03  6.60682444E-02
 -3.98325916E-03 -4.30273621E-03 -1.91344426E-02 -5.67775487E-03 -9.56184763E-03
 -2.34579833E-03 -2.66197274E-03 -1.86092444E-03  2.55789361E-02 -7.29944478E-04
 -5.47646879E-04 -4.53068661E-03  7.61579117E-03 -1.36314149E-02 -1.70271791E-02
  1.46952820E-02 -4.65750631E-04 -8.50574542E-04 -8.04342586E-02 -9.90358647E-02
 -4.30137531E-04  3.49390578E-03 -1.12986097E-01 -1.39200504E-01  2.41546673E-04
 -7.06098098E-03  3.34234845E-02  4.16125822E-02  3.74183747E-03  7.93463176E-02
  1.32744448E-01  2.08918395E-02  2.61963690E-02  2.42867513E-02 -3.72594279E-01
  4.07681483E-02  5.10345997E-02  4.30807212E-02 -3.20731339E-01  1.53325391E-02
  1.90540828E-02  2.27428319E-02 -7.86928471E-02 -1.31646041E-01  2.08015142E-02
  2.50873502E-02 -2.38855149E-02  3.69229883E-01  4.07692530E-02  4.92897933E-02
 -4.15630455E-02  3.16560054E-01  1.34568187E-02  1.60713104E-02 -1.85347996E-02
  9.53867923E-03  6.19740837E-03 -3.86255057E-03  4.38494969E-03  4.69519236E-03
  1.26793853E-03  4.61875303E-03  4.83786806E-03  1.54290886E-03  9.18101525E-03
  5.25064147E-03 -4.22484816E-03  1.30188694E-02 -3.42395155E-03  9.43561870E-04
 -2.64978457E-02 -4.45621572E-02  5.24079924E-02  6.73019889E-02 -3.63657489E-02
  1.15725323E-01  9.24304575E-02  1.18713758E-01 -6.33533784E-02  2.06748212E-01
  3.06661318E-02  3.97339925E-02 -2.61442863E-02  9.27607428E-02  1.56767050E-01
  7.75426895E-03  9.72571469E-03 -7.52570189E-03 -4.06819310E-01  7.62840833E-03
  9.18743239E-03 -1.12435721E-02 -4.02262273E-01 -1.50856007E-02 -2.10972334E-02
 -1.49403405E-03  1.88588108E-02  3.26276271E-02 -1.13265835E-03  3.70445122E-04
  7.04365283E-02 -9.74805535E-02 -1.03154505E-03  1.64560705E-03  1.14709675E-01
  1.15758028E-02  7.94908644E-03  1.03928641E-02 -4.12897382E-03 -1.68329160E-02
 -2.84176909E-02 -2.84761153E-03 -3.07087918E-03  1.44336046E-02  8.28268316E-02
 -6.17884931E-03 -6.84535130E-03  1.94803877E-02  6.81767661E-02  5.96990797E-04
  7.71820607E-04  1.04591846E-02 -1.94258261E-02 -3.27145874E-02  3.41066124E-03
  4.61154699E-03  1.62139655E-02  9.37387821E-02  8.01614974E-03  1.05020694E-02
  2.24704963E-02  9.34801628E-02  1.06860422E-03  1.44022006E-03  1.30106041E-02
  4.60750723E-02  3.40758983E-02  5.05421716E-03 -7.88914745E-02 -6.42040473E-02
  1.30499481E-02 -7.91341550E-02 -6.38674855E-02  1.34889732E-02  4.40959236E-02
  3.22048017E-02  5.03025093E-03  4.67727236E-02  3.21296855E-02  3.59794784E-03
 -2.07171962E-03 -3.63842550E-03  6.07161498E-02  6.80017608E-02  1.73091750E-01
  1.27757833E-02  1.05370703E-01  1.18239395E-01  3.01767091E-01  9.42599701E-03
  7.33598829E-02  8.32451776E-02  1.93237152E-01  5.03842790E-03  8.68461603E-03
  1.39137545E-02  1.55527608E-02  7.20936658E-02 -2.11696961E-02  2.48898733E-02
  2.79201200E-02  1.22991931E-01 -1.52328563E-02  1.13125328E-02  1.46287813E-02
  5.53843622E-02 -1.71047929E-02 -2.92013838E-02 -1.17855478E-03 -2.67030821E-03
 -4.69053308E-02  8.53577790E-02  3.80874673E-03  2.42269010E-03 -7.85320492E-02
  2.71436489E-02  6.09194090E-03  7.71903566E-03 -3.00387970E-02  1.46395750E-02
  2.47276494E-02  3.24453179E-03  3.58378172E-03 -2.97456581E-02 -7.17414504E-02
  8.18124100E-03  9.42879873E-03 -4.62399514E-02 -7.99591217E-02  2.11415134E-03
  2.34642062E-03 -2.56029019E-02  6.51712108E-03  1.10397597E-02  2.73596217E-04
 -1.58935937E-04 -1.66755300E-02 -3.35114345E-02  1.20482638E-03  8.06183140E-04
 -2.66344974E-02 -1.96310233E-02  5.09833384E-03  5.38353127E-03 -1.73738021E-02
  7.79796820E-02  8.22246027E-02  1.98028227E-03 -2.77234864E-02 -3.12960679E-02
 -4.14436887E-03 -3.09392726E-02 -3.60771054E-02 -6.33629378E-03  8.08215357E-02
  8.51248887E-02  1.81361472E-03 -1.41156569E-01 -1.62463197E-01 -1.11342570E-02
  1.57575482E-04  2.51414222E-04  1.62909780E-01 -1.26180399E-01 -6.30362017E-03
 -1.20159666E-04  2.82635687E-01 -2.18941722E-01 -1.10591711E-02 -5.45533501E-03
  2.07416748E-01 -1.59796977E-01 -8.95584559E-03 -8.47696709E-04 -1.46031228E-03
  5.07385496E-02 -4.16281730E-02 -1.94758755E-03  3.48240318E-03  8.83244851E-02
 -7.17738096E-02 -3.70420208E-03  9.87561713E-03  2.83879443E-02 -2.08831072E-02
  3.73352796E-04  4.53355462E-04  7.43334706E-04  1.10882687E-02 -8.74974995E-03
  1.78567245E-03 -1.73611477E-03  1.85908857E-02 -1.52349682E-02  2.90352738E-03
 -5.39370072E-03  8.56592139E-03 -8.57816741E-03  3.66768604E-03 -5.40645027E-04
 -9.11982408E-04  7.36008266E-03 -6.48914974E-03  1.28793388E-03  2.62145619E-03
  1.19199517E-02 -1.07716918E-02  2.04417707E-03  3.53485720E-03  8.09643406E-03
 -7.17225612E-03  9.22970706E-04 -1.33079830E-04 -2.28261262E-04  5.15038284E-03
 -4.06319918E-03  6.08454119E-04  7.61185255E-04  8.42712956E-03 -6.77043560E-03
  1.04829657E-03 -7.57178219E-05  3.98401283E-03 -3.47146001E-03  3.55546355E-04
  1.34691264E-01  1.33904204E-01  8.63530425E-03  4.06399384E-02  5.12887495E-02
  1.13572985E-02 -3.57630102E-02 -4.60146097E-02 -9.99814420E-03 -1.31858186E-01
 -1.29557844E-01 -8.29099465E-03 -3.19078321E-03 -2.84325696E-03 -6.82522987E-04
  7.24241042E-03  1.20884838E-02  6.16052764E-02  8.16403906E-02 -1.17119161E-01
 -3.08667824E-02  1.07846384E-01  1.42565551E-01 -2.01633256E-01 -8.38478268E-02
  9.69099885E-02  1.28514725E-01 -1.65305462E-01  3.14954455E-03  5.24047287E-03
 -4.05401189E-02 -4.89376749E-02  9.80896416E-02 -7.94372247E-03 -6.71980367E-02
 -8.07807114E-02  1.71620529E-01  1.47969319E-02 -2.49612437E-03 -9.68079036E-05
  4.27633822E-02 -5.59529674E-02 -9.64607470E-02 -5.95431131E-03 -9.32126736E-03
 -5.84713305E-02  2.86188288E-01 -1.31358284E-02 -1.96239714E-02 -1.05782999E-01
  1.50652443E-01  8.63031294E-03  7.57364161E-03 -9.81977427E-02  2.38271911E-02
  4.02129324E-02 -2.43160619E-02 -3.13355338E-02 -3.75300076E-02 -1.17640231E-01
 -3.71650878E-02 -4.80046294E-02 -5.76925110E-02 -1.39042587E-01 -3.13600059E-02
 -3.97285409E-02 -2.91085553E-02  3.46624657E-02  5.86263202E-02  3.09085641E-02
  3.62592910E-02 -6.55907532E-02 -1.72308735E-01  4.28498362E-02  4.99865932E-02
 -9.98787247E-02 -1.93711220E-01  3.90401454E-02  4.61928860E-02 -6.83640433E-02
  6.53065680E-03  1.23380874E-02 -7.87776211E-03 -5.38420330E-03 -3.35620720E-03
 -6.40991818E-03 -3.67778190E-03 -1.24458848E-03 -6.25404509E-03  1.12555231E-03
  6.07276088E-03 -9.94148716E-03  9.09116102E-02  1.10281543E-01  2.18533716E-02
  1.10366142E-02  1.84966018E-02  8.19178505E-02  1.09992276E-01 -5.28023510E-03
 -4.65142918E-02  1.43845384E-01  1.93088261E-01 -1.09368902E-02 -1.41942431E-01
  1.31687767E-01  1.76088238E-01 -1.90360297E-02 -1.85894720E-02 -3.16556510E-02
 -7.97528767E-02 -1.02246402E-01 -3.73440822E-02  7.63334424E-02 -1.35237995E-01
 -1.73360367E-01 -7.30855890E-02  2.36603695E-01 -3.53590795E-02 -4.44315917E-02
 -4.57194026E-02  3.87121867E-02  6.72625881E-02 -1.76735615E-02 -2.24833087E-02
 -1.11831732E-02 -2.10064850E-01 -3.99447841E-02 -5.02963669E-02 -2.04184024E-02
 -1.10309381E-01 -1.30831551E-02 -1.61382679E-02  5.36482070E-02 -3.32714336E-02
 -5.61417252E-02  5.19092832E-02  6.50555332E-02  4.57271355E-02  1.62301230E-01
  7.32557393E-02  9.19529019E-02  6.73236302E-02  2.32181061E-01  5.45962147E-02
  6.85438934E-02  3.76189230E-02 -1.26328061E-02 -2.12392186E-02 -3.01398373E-02
 -3.75478778E-02 -4.21118397E-03  6.16174437E-02 -4.76102604E-02 -5.93446318E-02
 -4.53855098E-03  6.48852182E-02 -4.20210519E-02 -5.22425198E-02 -1.38217115E-02
  4.57042818E-02  5.96018098E-02  1.79494201E-02  8.48792012E-02  1.08599007E-01
  2.48344932E-02  8.81802030E-02  1.13276003E-01  2.62567939E-02  5.00008341E-02
  6.48308642E-02  2.05941575E-02 -1.44002457E-02 -9.62387147E-03 -1.20412334E-02
 -6.50835997E-05 -1.19502959E-04  6.11520357E-02 -4.86147440E-02  1.35420406E-03
  7.06987249E-04  1.04571865E-01 -8.32576357E-02  2.23538613E-03 -2.00066082E-03
  8.58442893E-02 -6.89880075E-02  1.59164675E-03  2.45269037E-05  3.26383880E-05
 -1.24687939E-01  9.61811407E-02 -3.37331401E-03 -2.85704356E-04 -2.17564530E-01
  1.68132379E-01 -5.73559461E-03  1.49807077E-03 -1.51462413E-01  1.16358959E-01
 -3.05735506E-03 -4.43818511E-04 -7.79657487E-04 -6.75265488E-02  5.21935491E-02
  3.65150439E-04  2.69834430E-03 -1.21269697E-01  9.28274313E-02  8.73315525E-04
 -8.28902142E-04 -5.28926938E-02  4.46144513E-02  5.92684289E-04 -2.39985022E-04
 -4.12207669E-04 -4.99449561E-02  4.00389042E-02  1.41888640E-03  1.29354887E-03
 -7.95243053E-02  6.33872600E-02  2.12578675E-03  1.14491833E-03 -6.27763060E-02
  5.00987454E-02  1.64075382E-03  9.91231885E-04  1.67812516E-03 -5.21779586E-02
  4.63863756E-02 -2.70465560E-03 -4.92625224E-03 -8.25879698E-02  7.26561496E-02
 -3.93585632E-03 -6.60791825E-03 -6.89797599E-02  6.02871831E-02 -3.63436473E-03
  6.05084092E-02  8.07804335E-02  1.72411137E-02 -1.14370499E-01 -1.60252728E-01
 -2.99066410E-02  1.13678580E-01  1.59129739E-01  2.94131359E-02 -5.72228305E-02
 -7.49856465E-02 -1.63140550E-02 -4.80838984E-03 -5.91794058E-03 -1.54895481E-03
 -1.39970840E-03 -2.78970636E-03  1.69384525E-02  2.59754621E-02  4.83748315E-02
  1.54530775E-02  2.82027522E-02  4.31214229E-02  8.63240908E-02 -3.68620185E-02
  3.35429351E-02  5.41759435E-02  2.57772582E-02 -4.70474816E-03 -8.67023219E-03
 -2.27367853E-02 -3.46658644E-02 -8.21984172E-02  1.57545317E-02 -3.79651978E-02
 -5.80154430E-02 -1.26914008E-01  1.08245778E-01 -5.65914978E-05 -7.53686699E-03
 -9.70053857E-02 -2.23516269E-02 -4.00436903E-02 -1.50963234E-02 -1.73765272E-02
  1.32076224E-01  1.46645111E-01 -2.87895255E-02 -3.30185216E-02  2.50683624E-01
  1.33305117E-02 -5.43438017E-03 -5.64822780E-03  7.87820554E-02  1.88742805E-02
  3.15407370E-02 -7.13189377E-02 -8.74638746E-02  6.36969008E-02 -8.57945562E-02
 -1.07113247E-01 -1.31296014E-01  1.00242001E-01 -1.56759748E-01 -7.80894611E-02
 -9.57178436E-02  9.25929556E-02  3.08581559E-02  5.18181237E-02  9.40864709E-02
  1.14813321E-01  2.23289822E-02 -1.45480709E-01  1.37530654E-01  1.67886635E-01
  4.04160539E-02 -2.49173701E-01  1.04308620E-01  1.27013507E-01  3.67155423E-02