Gly.e+-localize-molden.E+.fchk                                                                      
        SP                           RHF                        PSX-TZ
Number of electrons                        I                1
Number of alpha electrons                  I                1
Number of beta electrons                   I                0
Number of atoms                            I                1
Number of basis functions                  I               56
Number of independent functions            I               56
Atomic numbers                             I   N=           1
           1
Current cartesian coordinates              R   N=           3
 -1.14853766E+00 -2.35919061E+00  5.47066225E+00
Shell types                                I   N=          15
           0           0           0           0           0           0
           1           1           1           1           2           2
           2           3           3
Shell to atom map                          I   N=          15
           1           1           1           1           1           1
           1           1           1           1           1           1
           1           1           1
Coordinates of each shell                  R   N=          45
 -1.14853766E+00 -2.35919061E+00  5.47066225E+00 -1.14853766E+00 -2.35919061E+00
  5.47066225E+00 -1.14853766E+00 -2.35919061E+00  5.47066225E+00 -1.14853766E+00
 -2.35919061E+00  5.47066225E+00 -1.14853766E+00 -2.35919061E+00  5.47066225E+00
 -1.14853766E+00 -2.35919061E+00  5.47066225E+00 -1.14853766E+00 -2.35919061E+00
  5.47066225E+00 -1.14853766E+00 -2.35919061E+00  5.47066225E+00 -1.14853766E+00
 -2.35919061E+00  5.47066225E+00 -1.14853766E+00 -2.35919061E+00  5.47066225E+00
 -1.14853766E+00 -2.35919061E+00  5.47066225E+00 -1.14853766E+00 -2.35919061E+00
  5.47066225E+00 -1.14853766E+00 -2.35919061E+00  5.47066225E+00 -1.14853766E+00
 -2.35919061E+00  5.47066225E+00 -1.14853766E+00 -2.35919061E+00  5.47066225E+00
Number of primitives per shell             I   N=          15
           1           1           1           1           1           1
           1           1           1           1           1           1
           1           1           1
Primitive exponents                        R   N=          15
  1.70647199E-02  4.34270059E-02  1.10514843E-01  2.81242750E-01  7.15718198E-01
  1.82138931E+00  4.96312946E-02  1.24207468E-01  3.10842086E-01  7.77914596E-01
  9.50648091E-02  2.33677729E-01  5.74400577E-01  1.59567515E-01  4.27306458E-01
Contraction coefficients                   R   N=          15
  1.00000000E+00  1.00000000E+00  1.00000000E+00  1.00000000E+00  1.00000000E+00
  1.00000000E+00  1.00000000E+00  1.00000000E+00  1.00000000E+00  1.00000000E+00
  1.00000000E+00  1.00000000E+00  1.00000000E+00  1.00000000E+00  1.00000000E+00
Alpha Orbital Energies                     R   N=          56
 -3.48369212E-03  6.16736715E-02  7.13309714E-02  7.61217591E-02  1.58570552E-01
  2.08953952E-01  2.60024647E-01  2.65788189E-01  2.87504482E-01  2.91761065E-01
  3.48718507E-01  3.75860229E-01  3.86876482E-01  5.06257887E-01  5.42442918E-01
  6.34353334E-01  6.36340937E-01  6.89961367E-01  7.34618273E-01  7.37764668E-01
  8.25209004E-01  8.49444563E-01  8.61088893E-01  9.36408028E-01  9.45821767E-01
  9.46139686E-01  1.08784456E+00  1.10091110E+00  1.18013812E+00  1.25983109E+00
  1.58972147E+00  1.80016181E+00  1.90997542E+00  1.92375915E+00  2.18824970E+00
  2.24656038E+00  2.24660600E+00  2.32107711E+00  2.33955121E+00  2.48690413E+00
  2.53302498E+00  2.96779445E+00  3.06551125E+00  3.06716840E+00  3.19203535E+00
  3.20329468E+00  3.24421504E+00  3.63588149E+00  3.63686077E+00  3.68476781E+00
  4.26814729E+00  6.12321929E+00  7.99886519E+00  8.01185924E+00  8.18614037E+00
  1.83367537E+01
Beta Orbital Energies                      R   N=          56
  0.00000000E+00  0.00000000E+00  0.00000000E+00  0.00000000E+00  0.00000000E+00
  0.00000000E+00  0.00000000E+00  0.00000000E+00  0.00000000E+00  0.00000000E+00
  0.00000000E+00  0.00000000E+00  0.00000000E+00  0.00000000E+00  0.00000000E+00
  0.00000000E+00  0.00000000E+00  0.00000000E+00  0.00000000E+00  0.00000000E+00
  0.00000000E+00  0.00000000E+00  0.00000000E+00  0.00000000E+00  0.00000000E+00
  0.00000000E+00  0.00000000E+00  0.00000000E+00  0.00000000E+00  0.00000000E+00
  0.00000000E+00  0.00000000E+00  0.00000000E+00  0.00000000E+00  0.00000000E+00
  0.00000000E+00  0.00000000E+00  0.00000000E+00  0.00000000E+00  0.00000000E+00
  0.00000000E+00  0.00000000E+00  0.00000000E+00  0.00000000E+00  0.00000000E+00
  0.00000000E+00  0.00000000E+00  0.00000000E+00  0.00000000E+00  0.00000000E+00
  0.00000000E+00  0.00000000E+00  0.00000000E+00  0.00000000E+00  0.00000000E+00
  0.00000000E+00
Alpha MO coefficients                      R   N=        3136
  1.21841889E+00 -1.10939061E+00 -1.06424344E+00  2.08548673E-01  2.22929820E-01
  4.33568637E-04 -1.54769405E-01 -1.02848669E-01  5.32297599E-01 -1.25339542E-01
 -3.58609643E-02  5.62828660E-01  4.05082693E-04 -1.18694752E-02 -5.42581550E-02
  1.61500961E-02  8.87234712E-03 -5.56872184E-02  3.68319886E-01  3.62998920E-01
  4.20365065E-01 -1.75340783E-02  7.20592464E-03  1.72499570E-02  3.29379662E-01
  3.26627192E-01  3.21033084E-01 -1.20666212E-03 -3.55316127E-03 -6.27029596E-03
  7.79060727E-02  7.83862303E-02  8.04080262E-02 -9.46870052E-05  1.03372122E-03
  1.78047065E-03  7.37232464E-02  6.47573136E-03 -3.59589939E-01  1.54950375E-02
 -5.61254301E-03 -1.64330391E-01  4.22029247E-02  1.71931528E-02 -1.63074383E-01
 -2.73890212E-04  2.37783920E-02  7.68512886E-03 -1.07944762E-01  1.37124166E-02
  5.11674218E-03 -4.73540979E-02  9.05300109E-03  1.21224302E-03 -4.74612582E-02
  2.76095678E-04 -3.04351469E+00  8.67826038E+00  4.37442226E+00 -1.59212192E+00
 -1.11607246E+00 -2.32512714E-02 -6.21754792E-02 -1.51794535E-01  2.53813580E-01
  8.69511626E-02 -4.65395919E-02 -1.12208255E-01 -2.17913801E-02 -9.32603243E-03
  2.76018822E-02 -2.51353653E-03  9.89546095E-03 -1.21564807E-03 -2.34174404E+00
 -2.34106755E+00 -2.25919900E+00  9.59948749E-03 -2.71027792E-02 -3.41533716E-02
 -1.57428495E+00 -1.57575798E+00 -1.59528376E+00 -9.99332026E-03  1.18247529E-02
  1.47678241E-02 -3.66185783E-01 -3.66082290E-01 -3.60406045E-01  1.66425153E-03
 -2.67954015E-03 -3.20843048E-03 -6.99836241E-02  1.11647949E-02  8.39372322E-02
 -3.74109878E-02  1.86315579E-03  3.44685691E-02 -2.51458555E-02  1.46832551E-02
  3.31448977E-02 -2.07175357E-03 -1.67930420E-02  8.04075570E-03  1.46409682E-02
 -7.31180981E-03  3.59155974E-03  7.17720417E-03 -8.25355480E-03  2.43115265E-03
  7.44627023E-03  6.42476381E-04 -1.76905932E-01  4.59772917E-01 -1.90835460E-01
 -5.37089693E-02  2.54896747E-02  8.08345121E-04  6.73122812E-01  9.70185830E-01
  7.50008281E-01  8.03942950E-01  1.14684831E+00  8.70887634E-01 -9.58071998E-02
 -1.35637471E-01 -9.96218238E-02 -7.24017630E-02 -1.04031443E-01 -8.10465122E-02
 -2.01721723E-01 -2.31370794E-01  1.12122523E-01 -1.28742100E-01  6.29824636E-02
  1.12330290E-01  2.95046766E-02  3.01753273E-02 -5.80224643E-02  2.78394943E-02
 -2.62059346E-02 -4.31734678E-02 -9.24025764E-04 -1.26245660E-03  1.83641973E-02
 -6.38186050E-03  5.42174090E-03  9.03388083E-03 -5.27215040E-01 -7.70715543E-01
 -5.90640346E-01 -2.73443845E-01 -3.63652974E-01 -2.55414894E-01 -2.12097225E-01
 -3.09235390E-01 -2.50362238E-01  6.16031205E-03 -1.50990977E-01 -2.14006142E-01
 -1.63922014E-01 -6.04784582E-02 -9.16899468E-02 -7.58348837E-02 -7.19502169E-02
 -1.01853205E-01 -7.67484514E-02 -1.55799509E-03  1.65786859E-01 -5.21716973E-01
 -3.32384186E-01  1.13052972E-01  7.67625053E-02  1.38573878E-03  1.08139948E+00
 -8.41564585E-01  1.13822094E-01  1.07527326E+00 -8.60038058E-01  1.52377396E-01
 -1.19441526E-01  9.45931211E-02 -1.60303806E-02 -1.04956582E-01  8.38463878E-02
 -1.42239475E-02  6.69489539E-02  2.11320680E-01  1.92315670E-01 -2.80294131E-03
  1.64829568E-01 -1.38000792E-01  1.21602638E-01  1.13254876E-01  9.97697429E-02
 -4.40674481E-03 -4.94990616E-02  3.95969038E-02  2.17898130E-02  2.57775949E-02
  2.77056319E-02  6.84756939E-04  1.09578184E-02 -8.90926142E-03 -7.31643501E-01
  5.85414558E-01 -1.01204602E-01 -3.22967397E-01  2.54228790E-01 -2.95715018E-02
 -3.28379861E-01  2.67058409E-01 -5.86842803E-02  3.21154550E-03 -2.12620834E-01
  1.72471811E-01 -2.91327864E-02 -9.36809792E-02  7.40234475E-02 -1.51665093E-02
 -9.27965438E-02  7.37247782E-02 -1.21402144E-02 -3.98523896E-04  5.70063296E-01
 -2.68075681E+00 -1.45429553E+00  6.13239105E-01  3.27547369E-01  8.77599417E-03
 -4.63098474E-01 -4.92321375E-01  7.84697863E-01 -5.57892964E-01 -6.80273008E-01
  7.59997743E-01  7.19944617E-02  9.13190756E-02 -5.58209299E-02  5.08447853E-02
  5.92985767E-02 -8.45773863E-02  5.49391836E-01  5.86691623E-01  1.04154981E+00
  2.80215299E-01 -3.71331142E-01 -3.72619197E-01  5.56248709E-01  5.52408615E-01
  3.80462985E-01 -6.95476595E-02  1.09480905E-01  1.06752871E-01  9.01631786E-02
  9.06385132E-02  1.27784406E-01  1.49813777E-02 -2.48610829E-02 -2.46423573E-02
  3.89983786E-01  4.96907819E-01 -5.17235297E-01  2.29319381E-01  2.47634305E-01
 -2.22560857E-01  1.52682662E-01  1.90727591E-01 -2.22453469E-01  1.02582498E-02
  1.19671894E-01  1.39209144E-01 -1.65426554E-01  4.29369890E-02  5.75140824E-02
 -7.95824881E-02  5.75936632E-02  6.84221972E-02 -8.10168244E-02 -5.48519253E-03
  2.35341948E+00 -1.31246849E+01 -9.46704655E+00  3.19555639E+00  2.16030123E+00
  2.96430379E-02  2.52438337E-01  2.61067349E-01 -4.60335148E-01  5.20412883E-01
  4.41843898E-01 -1.34476464E+00 -9.44213761E-02 -8.77556399E-02  2.09276105E-01
 -3.81743648E-02 -3.26764364E-02  9.78523926E-02  4.76617661E+00  4.73733958E+00
  4.87033888E+00 -1.67755955E-02 -3.52262046E-02 -1.88951977E-02  3.24899074E+00
  3.25087360E+00  3.24379225E+00 -8.53190987E-03  1.28746491E-02  1.16150465E-02
  7.28861733E-01  7.27754544E-01  7.31412782E-01  3.22721592E-04 -2.39141066E-03
 -1.88000396E-03 -4.22399728E-01 -3.81990639E-01  1.01130096E+00 -1.89632636E-01
 -1.71233603E-01  4.42406892E-01 -1.90891453E-01 -1.69194734E-01  4.40306445E-01
 -1.35903909E-03 -1.07796607E-01 -9.81845131E-02  2.51065213E-01 -5.15664437E-02
 -4.53970367E-02  1.14515109E-01 -4.61990736E-02 -4.13888497E-02  1.15356911E-01
  9.77799991E-04  8.30281514E-03 -5.17598502E-02 -2.17900531E-02  1.79385420E-02
  2.30430983E-03  2.36442435E-05 -7.41851181E-02  7.88972476E-02 -1.78904976E-03
 -1.03312107E-01  1.31301196E-01  1.20977378E-02  2.86216006E-02 -3.09079306E-02
 -2.10218790E-04  6.17969858E-03 -8.50742508E-03 -9.91438020E-04 -8.35285424E-01
  9.42418792E-01 -5.42778947E-02 -2.63201222E-01 -4.90476629E-01  2.85911812E-01
  2.69328915E-01 -2.74343753E-01  2.97284181E-02  8.05693143E-02  1.44328640E-01
 -8.37920216E-02 -5.06028708E-02  5.66126207E-02 -3.32712326E-03 -1.57834765E-02
 -2.75796215E-02  1.58890251E-02  1.89859047E-01 -2.09632698E-01 -1.83669048E-02
  3.52885096E-02 -8.83164369E-03 -4.46569426E-02 -2.18932955E-02 -1.26478228E-02
  6.27270935E-02 -1.44482517E-02  1.17940622E-02 -1.81499680E-02  9.85770121E-04
  1.11662259E-02 -1.61975982E-02  8.47850126E-03  2.26582941E-02 -1.94879162E-02
 -1.35902843E-02  3.21348222E-03  1.11799319E-02 -6.68039833E-02  1.91848252E-01
  5.97450061E-02 -6.88701502E-02 -3.15137860E-04  5.43409385E-02  8.48175234E-02
  1.02271580E-01 -4.11182611E-02  2.14911993E-02  4.19764960E-01  2.07322369E-02
  1.56086005E-02 -4.84467953E-02 -4.31314692E-03 -1.04237901E-02 -3.10566611E-02
  4.77578413E-01  9.64933520E-02 -5.36686045E-01 -7.22155379E-01 -3.66958479E-01
 -6.47230549E-01 -1.95413756E-01 -8.46954326E-02  9.84595958E-02  2.07740655E-01
  1.12592188E-01  1.94951439E-01  4.55563374E-03 -1.66618517E-02 -5.16669536E-02
 -4.00212985E-02 -2.19350193E-02 -3.78363631E-02 -1.43854521E-02 -8.57683537E-03
 -3.50536244E-01  8.49277587E-02  4.36341926E-02 -2.86368816E-02 -4.32015516E-02
 -1.10301966E-01 -3.75701524E-02 -4.20352472E-03 -1.94380915E-03 -2.38711300E-02
 -4.97042020E-02 -1.63184745E-02 -1.95069830E-02 -4.36420590E-02  8.67922397E-03
  1.19011935E-02 -4.02764272E-02  3.35944733E-03  3.39412257E-03 -3.15937458E-02
  4.24547219E-03 -9.97353430E-03  7.87538191E-03 -5.95420201E-05 -7.28256007E-01
  7.04531562E-01 -2.30803195E-02 -2.02035308E+00  2.05282060E+00 -9.62150603E-02
  2.96334794E-01 -3.06589912E-01  1.49132374E-02  1.47851529E-01 -1.47152939E-01
  6.41977467E-03 -3.74432688E-01  3.27938630E-01  5.22507729E-02  2.24068181E-02
  6.44105649E-01 -5.60399382E-01  9.77875459E-02 -6.54407615E-02 -3.58847121E-03
 -2.95046398E-03 -1.54652144E-01  1.29031259E-01 -1.58218817E-02  1.92547839E-02
  4.98207448E-03  2.22154390E-05  2.85676647E-02 -2.36956504E-02  1.40489633E+00
 -1.41916258E+00  7.79975128E-02  5.86883753E-01 -6.00867403E-01 -6.39963035E-02
  7.43321568E-01 -7.37261395E-01  1.05632017E-01 -1.40710492E-03  3.65717034E-01
 -3.64956476E-01  1.37867884E-02  1.72391393E-01 -1.70092346E-01  2.44724441E-02
  1.40632289E-01 -1.43183828E-01 -7.25130491E-03 -4.14280396E-04  4.66163329E-02
 -3.74211037E-01 -8.47480103E-01  1.95094740E-01  1.54442864E-01  7.96306997E-04
  7.06556634E-01  7.93588260E-01  7.18061278E-01  2.24619173E+00  2.58239682E+00
  2.36207662E+00 -3.60423470E-01 -4.14832997E-01 -3.24412240E-01 -1.50592300E-01
 -1.72216300E-01 -1.75367765E-01  3.57496383E-01  4.57051416E-01 -2.54448163E-01
  5.11674026E-01 -1.27164434E-01 -8.48746505E-02  2.28710469E-01  2.11860792E-01
  2.98741679E-01 -9.69812855E-02  2.28290024E-02  7.15401039E-03  5.28306233E-02
  5.69505397E-02  4.01403333E-02  2.03774782E-02 -2.57404817E-03  9.23517355E-04
 -1.53765193E+00 -1.79272915E+00 -1.70995780E+00 -7.87017825E-01 -8.66290011E-01
 -6.78294387E-01 -6.70005044E-01 -7.58035698E-01 -6.74406089E-01  5.64485841E-02
 -3.82760059E-01 -4.28444348E-01 -4.06083565E-01 -1.44435543E-01 -1.75398666E-01
 -2.00846572E-01 -1.78776053E-01 -2.06723170E-01 -2.02463917E-01 -1.24001870E-02
 -4.83941701E-02  3.32601294E-01  5.09013417E-01 -1.34343552E-01 -9.31332812E-02
 -1.66154611E-03 -7.86738314E-01  6.76491181E-01 -8.63825743E-02 -2.61805889E+00
  2.23235178E+00 -2.42195157E-01  4.19646099E-01 -3.54946646E-01  3.55104273E-02
  1.80011160E-01 -1.54230005E-01  1.79643920E-02  2.28237648E-01 -5.19181932E-01
 -1.83751942E-01  7.60209348E-02 -4.25969816E-01  3.34894008E-01 -3.33455835E-01
  5.01541524E-02 -1.18816889E-01 -3.77171420E-02  1.71867814E-01 -1.46709817E-01
  5.27851298E-03 -6.26767532E-02 -3.35163521E-02  6.28989492E-03 -3.26651880E-02
  2.81671311E-02  1.95144264E+00 -1.62560366E+00  1.65341736E-01  9.37088092E-01
 -8.35419595E-01  2.18291397E-01  7.77475746E-01 -6.57880531E-01 -4.62520320E-02
  2.45951859E-02  4.55274095E-01 -3.88790194E-01  4.68425413E-02  2.00376750E-01
 -1.70485875E-01  2.93484384E-03  2.26826096E-01 -1.92625341E-01  3.36582569E-02
 -2.50653486E-03  1.03457568E+00 -7.42615499E+00 -9.91370095E+00  2.71194899E+00
  1.88014041E+00  3.20739128E-02 -4.02523712E-01 -3.01427409E-01  1.22103742E+00
 -9.80026070E-01 -7.82071099E-01  3.01292005E+00  1.60241226E-01  1.23315054E-01
 -4.55452127E-01  6.52974339E-02  5.05306807E-02 -2.24632381E-01  3.40348849E+00
  3.29220260E+00  3.39897964E+00 -3.82901667E-01  2.55574412E-01  2.97538924E-01
  2.77312331E+00  2.81465388E+00  2.61074797E+00  7.82188633E-02  1.94540087E-02
  3.43685635E-03  6.08897799E-01  6.01467360E-01  6.48617780E-01 -1.26130859E-02
 -7.48730867E-03 -4.00499220E-03  5.41407347E-01  4.02265814E-01 -2.20202705E+00
  4.24585244E-01  2.83417136E-01 -1.00300272E+00  3.30220603E-01  2.46675813E-01
 -1.03213117E+00 -1.28444563E-01  1.81362494E-01  1.30894617E-01 -5.65249736E-01
  4.52718535E-02  3.72851716E-02 -2.50067014E-01  5.91798619E-02  3.93888921E-02
 -2.44807126E-01  2.69362014E-02  5.43582164E-01 -4.01122887E+00 -6.30528792E+00
  1.74561273E+00  1.10798599E+00  1.80156336E-02 -3.94732448E-01 -4.48748895E-01
 -3.19972100E-02 -9.84227261E-01 -1.16884756E+00 -9.86357874E-02  1.28964562E-01
  1.50606227E-01  6.74041768E-02  8.25529929E-02  9.83571243E-02 -2.05576687E-03
  2.27116696E+00  2.38580024E+00  1.20548836E+00  2.95800258E-01  1.72030208E-01
  1.56145638E-01  1.54232644E+00  1.49843016E+00  1.86569640E+00 -1.31531291E-01
 -2.60291232E-02 -2.06080835E-02  3.71030032E-01  3.78529440E-01  3.16189891E-01
  2.38613427E-02  1.04894894E-03 -5.13239531E-04  7.41421531E-01  8.02795416E-01
  2.82960544E-02  1.01306299E-01  2.38993358E-01  2.60432104E-01  6.29910748E-01
  7.25604527E-01  2.73994348E-01 -1.43900240E-02  2.08871722E-01  2.61521573E-01
  7.35879554E-02  1.34970080E-01  1.38786299E-01 -1.67133782E-02  4.10798723E-02
  5.34529413E-02 -1.94501665E-02  1.58394010E-03  1.46416692E+00 -1.18849639E+01
 -2.39066763E+01  5.77576428E+00  4.23171725E+00  7.75153208E-02 -1.81495609E-02
 -2.97055018E-02 -7.84498617E-02  7.25775981E-01  6.88725290E-01 -1.96563068E+00
 -3.28263145E-02 -2.63193176E-02  1.14943173E-01 -5.57266321E-02 -5.22523651E-02
  1.60091379E-01  6.56558560E+00  6.61311162E+00  6.73958673E+00  2.04146960E-01
 -2.19391905E-01 -2.44057553E-01  5.97360574E+00  5.95304741E+00  6.01152225E+00
 -7.85118878E-02  7.73504236E-02  9.17583896E-02  1.38063373E+00  1.38506611E+00
  1.36430363E+00  1.48189305E-02 -1.20162044E-02 -1.49698408E-02  7.31127128E-02
  9.73089312E-03  9.71178993E-01 -3.83068453E-01 -2.26817449E-01  2.92550932E-01
 -2.97592540E-01 -2.91792896E-01  3.43490959E-01  2.69352587E-01 -1.50696006E-01
 -1.20254698E-01  2.76815089E-01  9.21880517E-03 -1.16278626E-02  1.59322560E-01
 -7.57223699E-03 -1.27100924E-03  1.52940929E-01 -4.16511192E-02  8.12810890E-01
 -6.70534995E+00 -1.41757864E+01  3.97270958E+00  2.17841882E+00  5.25789244E-02
  3.61069218E-01  4.13330247E-01 -4.71196720E-01  2.13373313E+00  2.47346567E+00
 -2.62155689E+00 -2.50129634E-01 -2.91154382E-01  2.98873192E-01 -1.55415134E-01
 -1.79350025E-01  1.96817945E-01  3.90304538E+00  3.83617676E+00  3.88115763E+00
 -2.35587953E-01  2.07182377E-01  2.43480645E-01  3.24236052E+00  3.30755925E+00
  3.24280510E+00  2.24673757E-01 -2.14501318E-01 -2.52943476E-01  7.02627084E-01
  6.92693313E-01  6.95321463E-01 -3.65389989E-02  3.88574123E-02  4.49448211E-02
 -1.67689900E+00 -1.77468225E+00  1.64010418E+00 -2.76524837E-01 -5.39728052E-01
  7.89960456E-01 -5.17229071E-01 -6.09750115E-01  7.20764373E-01 -2.72624194E-01
 -2.83426631E-01 -3.49974069E-01  4.52299648E-01 -1.94826286E-01 -1.93307779E-01
  1.79617166E-01 -1.69321006E-01 -1.93258975E-01  1.85638385E-01  3.22286941E-02
  1.02779371E-04 -1.10768891E-03 -5.79083070E-03  3.89362432E-04  1.39527992E-03
 -2.58131989E-05 -1.42316401E-04  1.52549522E-03  3.03225755E-05 -6.15380280E-04
  2.62350573E-02 -7.80736123E-05 -1.40318727E-03 -4.21907176E-03 -5.64419816E-05
  2.53456659E-04 -1.18200116E-03 -1.98385761E-05 -2.49735381E-02  2.50902757E-02
  2.40395216E-03 -7.47185965E-03 -1.92537366E-03  6.98529753E-04  2.42565805E-03
  4.61213683E-03 -2.51586168E-03  1.62477099E-03 -2.38674228E-02  1.90177923E-02
 -1.65075832E-04 -1.08565324E-04  1.12745538E-03 -5.04244532E-04  4.77003222E-03
 -3.78144576E-03 -5.88223384E-02 -3.39467106E-01  6.14084034E-02 -3.64697434E-01
  6.91969275E-01  5.77268174E-01  4.37796270E-01 -2.62730223E-01 -6.60366104E-01
  2.49787486E-01  6.55825634E-03  5.57626702E-02 -1.03699085E-02  6.14264903E-02
 -1.19882445E-01 -9.93646414E-02 -7.23744842E-02  4.03696254E-02  1.12797329E-01
 -4.26012214E-02 -1.58900979E-02  1.45803538E-01  4.85163776E-01 -3.89021091E-02
 -1.15745651E-01 -7.38066565E-04 -5.54784206E-03 -5.54262228E-03  4.77091515E-03
 -1.90887908E-01 -2.23971591E-01  1.27907864E-01  3.61659234E-02  4.40654880E-02
 -1.12386696E-02  7.45518346E-03  8.26471835E-03 -9.12465081E-03 -1.15201560E-01
 -9.80527436E-02 -8.63449691E-02  3.22263643E-02  3.53591864E-02  4.05705341E-02
 -1.33482296E-01 -1.44423085E-01 -1.28952374E-01 -2.18535262E-02 -1.49904880E-02
 -1.37678483E-02 -3.70727918E-02 -3.40016839E-02 -3.72086791E-02  6.75975859E-03
  2.42922002E-03  2.12194947E-03  5.80832886E-01  4.91638751E-01 -4.22687001E-01
 -3.79249720E-01  2.01297369E-04  4.39630891E-01 -2.03679574E-01 -4.28224551E-01
  9.10348922E-03 -7.33411113E-01 -6.48725455E-02 -4.41429624E-02  4.22529244E-02
  7.87737247E-02  1.74385788E-02 -8.56600201E-02  5.07332923E-02  9.10791349E-02
 -1.29146235E-02  1.23071067E-01  7.26672598E-04 -7.36929463E-03 -2.69551476E-02
 -2.16996205E-03  8.34150673E-03  1.07099511E-04 -5.03735758E-02  4.59911259E-02
 -2.24698437E-04 -7.81962727E-01  6.97200966E-01 -2.39721530E-02  1.06968148E-01
 -9.55315821E-02  3.91552152E-03  4.74776535E-02 -4.23005238E-02  1.23549769E-03
  1.87916220E-01 -1.80747807E-01  7.74659513E-03  4.99440268E-02  1.09126749E-01
 -8.00277741E-02 -2.27102412E-01  2.46279779E-01  4.34853373E-03 -5.91691311E-02
 -7.00148647E-02  4.58640390E-02  5.64820584E-02 -5.21436672E-02  3.39615178E-03
  1.34495570E-02  1.46654059E-02 -9.34669525E-03  1.05185283E+00 -1.16326940E+00
 -4.05783774E-02 -8.40211134E-03  3.77406482E-01 -4.99765144E-02 -5.02249050E-01
  3.79132549E-01  1.31765267E-01 -3.75366232E-02 -1.60897636E-03  4.23610670E-02
  1.18715056E-02  8.42782933E-02 -1.41202818E-01  1.22904324E-02  1.60282187E-01
 -1.31694500E-01 -2.09548968E-02  6.09647845E-03 -7.32012517E-02  6.84261744E-01
  2.68715445E+00 -2.09897496E-01 -6.30543406E-01 -3.87529944E-03 -5.84770881E-03
  2.22571784E-02  1.18835519E-01 -7.21858321E-01 -3.23985111E-01  2.40580819E+00
  1.34968958E-01  1.16461735E-01 -3.12608630E-01  2.84243295E-02 -5.49440863E-03
 -1.46235856E-01 -4.41746950E-01 -3.30907861E-01 -7.16727485E-01 -8.06345649E-02
 -3.33729539E-02 -1.92537882E-01 -7.68049500E-01 -9.03680240E-01 -5.76123297E-01
  7.85084234E-02  7.29087521E-02  2.36647149E-01 -1.95227538E-01 -1.64193687E-01
 -2.35884688E-01 -1.16364766E-02 -2.25913725E-02 -5.91316973E-02  5.24379810E-01
  1.73827517E-01 -3.07295548E-01 -6.26986249E-02 -2.56308906E-01 -9.04825701E-01
  9.81649559E-02  3.12780704E-01 -1.35353374E+00 -3.07532999E-01  4.47284913E-02
  8.26397296E-03 -4.57782807E-01  6.51501520E-02  5.96378440E-02 -8.75494318E-02
  4.11476549E-02 -2.99441716E-02 -1.11533520E-02  5.02421141E-02 -2.65711600E-02
  2.45122096E-01  9.15414119E-01 -9.14911572E-02 -2.06037862E-01 -1.46900968E-03
  6.86506069E-02 -3.74854733E-02  2.43313075E-02  1.03393259E+00 -9.87218413E-01
  6.54387078E-01 -7.17708848E-02  1.09329290E-01 -8.57793234E-02 -8.11175550E-02
  6.33838058E-02 -3.90708020E-02  1.45248920E-01 -4.14489976E-01 -2.41573778E-01
  4.45347995E-02 -2.75108836E-01  1.69863140E-01 -6.07388616E-01  3.95373359E-02
 -1.92414844E-01 -5.45397340E-02  2.73312110E-01 -1.58901893E-01  1.04372208E-02
 -1.28264328E-01 -7.86384874E-02  1.31541769E-02 -5.99242029E-02  3.16894342E-02
 -5.30353302E-01  3.78665111E-01 -5.15304237E-02 -6.61420870E-01  6.83017711E-01
 -9.15129473E-01  2.09719414E-01 -1.25170215E-01  2.65251617E-01 -2.01576194E-01
 -1.46939009E-01  1.45959753E-01 -1.26290463E-01  7.75588732E-03 -2.89031244E-02
  9.14278979E-02 -1.30134706E-01  1.05831291E-01 -1.10773856E-01  3.46930528E-02
 -1.29726932E-01  1.22370159E+00  4.54556290E+00 -6.60221203E-01 -9.17884193E-01
 -9.68016540E-03 -2.59659726E-01 -3.54939567E-01 -3.89122202E-01 -5.40898084E+00
 -7.30525089E+00 -7.06081931E+00  6.64518909E-01  8.91874883E-01  7.96404300E-01
  3.37675978E-01  4.58385848E-01  4.69197465E-01 -9.38892258E-01 -1.12548985E+00
 -5.25352316E-01 -5.14647874E-01  9.15573776E-02  1.21675219E-01 -1.07962016E+00
 -8.15332215E-01 -1.77387122E+00  7.29267425E-01 -1.32868326E-01 -1.84800986E-01
 -3.21192532E-01 -3.70734913E-01 -1.98773923E-01 -1.37731028E-01  2.67829695E-02
  3.61665828E-02  2.94178878E+00  3.77693949E+00  3.66982879E+00  8.67341239E-01
  1.45082621E+00  1.64558764E+00  1.34826962E+00  1.82064443E+00  1.68481780E+00
  1.27800791E-01  6.64583965E-01  9.33349543E-01  9.61076717E-01  3.61871676E-01
  4.50747344E-01  4.33649929E-01  2.89624656E-01  3.93291557E-01  4.28514971E-01
 -1.58449561E-02  3.58214922E-01 -3.26018633E+00 -1.09026296E+01  2.08023083E+00
  1.97778327E+00  2.89180549E-02 -7.81342246E-02 -1.99118297E-01  6.06602251E-01
 -7.14649544E-01 -3.01563550E+00  1.02313773E+01  9.34849521E-02  3.61136647E-01
 -1.17948182E+00  4.24548573E-02  1.92510120E-01 -6.67955866E-01  2.33742559E+00
  2.21135842E+00  1.96260212E+00 -3.19196949E-01  3.83181058E-01  4.69562411E-01
  2.52066539E+00  2.71587378E+00  3.05522156E+00  4.27116431E-01 -5.20162797E-01
 -6.62121999E-01  6.99590467E-01  6.64155433E-01  6.07089472E-01 -8.37609889E-02
  9.55972743E-02  1.20768631E-01  5.76184827E-01  1.73079343E+00 -5.30304186E+00
  6.32086350E-02  6.46964970E-01 -2.40246473E+00 -2.84476447E-02  4.94233729E-01
 -2.35221735E+00  2.75405747E-01  5.31590157E-02  3.67403634E-01 -1.34445954E+00
  5.19254502E-02  1.82469751E-01 -6.05585396E-01  5.61519168E-02  1.94621207E-01
 -6.12509256E-01 -3.73926633E-02  5.91828799E-02 -5.43047978E-01 -1.74721416E+00
  3.23897365E-01  3.23583038E-01  4.86666490E-03 -6.39759089E-01  4.75051049E-01
  4.22057081E-02 -1.20376276E+01  9.17086005E+00  5.87701753E-01  1.39593592E+00
 -1.05697129E+00 -7.01104607E-02  7.86466969E-01 -6.01471869E-01 -3.74341725E-02
  2.15423251E-01  5.04397532E-01  3.49447975E-01 -7.03666814E-02  1.53045880E-01
 -4.74178692E-02  7.60323372E-01  1.31653678E-01  4.45935088E-01  1.17888856E-01
 -3.40324179E-01  1.69047668E-01  6.32423674E-02  1.51543022E-01  1.07496222E-01
 -1.91118622E-02  5.61160077E-02 -2.55799774E-02  6.25935460E+00 -4.75589784E+00
 -2.96652965E-01  2.71262799E+00 -2.04302582E+00 -2.78127656E-01  2.87528119E+00
 -2.22942406E+00 -1.39428782E-02  3.06753648E-03  1.61821241E+00 -1.23978632E+00
 -7.61718291E-02  7.38020792E-01 -5.68652971E-01 -8.10660136E-03  7.07225664E-01
 -5.37009345E-01 -5.59915833E-02  7.36573043E-04 -1.18802141E+00  1.12298638E+01
  4.35965770E+01 -8.09572854E+00 -7.85420861E+00 -9.94654318E-02  2.19680487E-01
  2.90925405E-01  7.59425510E-02  4.01726698E+00  5.34774436E+00  1.26282212E+00
 -3.75965429E-01 -4.98027317E-01 -9.01558126E-02 -2.87090558E-01 -3.83965145E-01
 -1.09898355E-01 -8.11871270E+00 -8.19962238E+00 -8.15054514E+00 -2.84005772E-01
  1.14288368E-01  1.46144557E-01 -1.11210098E+01 -1.10512850E+01 -1.11240951E+01
  2.70650969E-01 -5.45100807E-02 -8.79127999E-02 -2.60714985E+00 -2.62484240E+00
 -2.59533383E+00 -6.22621031E-02  8.50836909E-03  1.48391947E-02 -1.92797533E+00
 -2.71796083E+00 -6.15010742E-01 -1.21354962E+00 -1.40982783E+00 -2.68906473E-01
 -1.01425473E+00 -1.32702915E+00 -2.07632357E-01  2.30008636E-01 -5.90123513E-01
 -7.77020592E-01 -2.44160505E-01 -2.32460074E-01 -3.29870747E-01 -1.15372688E-01
 -2.36830079E-01 -3.22608096E-01 -1.22858396E-01 -3.21630805E-02 -9.08622919E-03
  8.67589622E-02  3.40966784E-01 -9.53710593E-02 -4.67186526E-02 -1.21372854E-04
 -2.96649444E-02  4.65929949E-03 -1.03626804E-02 -7.06725803E-01  2.88770268E-01
 -1.13637638E-01  9.21295921E-02 -2.91456283E-02  5.33395334E-03  4.11322347E-02
 -1.80924110E-02  1.09969255E-02 -5.41735462E-01  3.07056695E-01  4.38006958E-02
  5.49660997E-02 -4.81486857E-01  5.45612606E-01  8.45159649E-01 -7.91153993E-01
 -3.02532635E-01 -9.50542210E-02  9.04605237E-01 -1.02330148E+00 -1.96175747E-01
  1.24698537E-01  2.70013419E-02  1.97533492E-02 -1.77374942E-01  2.00314347E-01
  4.71206698E-01 -2.46315072E-01  1.04112045E-01  1.26404527E-01  7.71144186E-04
  1.73739978E-02  6.95931692E-02 -7.67061258E-03 -2.09198307E-02 -7.34496340E-04
  2.05749203E-02  2.90263317E-02  8.23817837E-03  6.09625645E-02 -4.13055870E-02
  6.80325718E-03  8.73118167E-02 -5.81974112E-02  3.93152855E-02 -6.35565956E-04
  8.63010170E-02 -8.20608442E-01 -3.21289338E+00  7.04859979E-01  5.28847470E-01
  5.02238377E-03  9.08756887E-03  2.58716194E-02  2.08868904E-02 -1.76427596E-02
  4.31475236E-01  2.57854932E-01 -2.35903694E-02 -8.36663955E-02 -3.53216377E-03
  7.55194130E-03 -1.80241601E-02 -2.78418572E-02  8.20146310E-01  8.50114950E-01
  1.30676493E-01 -5.65498949E-01 -4.15579540E-01 -2.21736224E-01  3.72022828E-01
  3.01648423E-01  1.73769300E+00  1.06875487E+00  7.71276708E-01  4.11045933E-01
  2.56010722E-01  2.68868384E-01 -7.44047605E-03 -2.11900864E-01 -1.50768487E-01
 -8.00154170E-02 -3.65030616E-02 -2.99496384E-01 -2.95642122E-01  5.66531754E-02
 -4.58307779E-02  4.43947718E-02  1.39498968E-02 -5.35995770E-02  4.28037636E-02
  1.93374557E-03  2.47390015E-02 -1.23101791E-02  6.20823284E-03 -4.20806045E-02
 -5.91297584E-02 -7.90202220E-02  1.73341499E-02 -2.59523354E-02 -7.35044962E-02
 -4.34150610E-03 -5.32033794E-03  4.93615585E-02  2.03913370E-01 -2.31807053E-02
 -4.34104266E-02 -6.01349303E-04 -1.58683913E-01  1.18871950E-01 -1.36872899E-02
 -4.78213383E+00  3.60587183E+00 -3.12547279E-01  3.89011560E-01 -2.90022827E-01
  2.91458634E-02  3.58663243E-01 -2.71174551E-01  2.22347144E-02  5.02990764E-01
 -5.33613605E-01 -7.78545731E-02  1.25713972E-01 -3.11389733E-01  2.81286289E-01
 -1.15186874E+00  9.73864939E-01  1.48676082E-02 -2.54089320E-01  6.15223663E-01
 -5.51013046E-01  2.11517068E-01 -2.26556527E-01 -2.87989191E-02  5.31209245E-02
 -1.23588998E-01  1.11001491E-01  2.30256316E+00 -1.64554475E+00  1.64166237E-01
  1.18880209E+00 -1.01618347E+00  2.51057399E-01  1.05020655E+00 -7.88900954E-01
 -1.10841895E-01  3.79248393E-02  7.76805297E-01 -6.43658600E-01  4.64310214E-02
  2.43271240E-01 -9.30709326E-02 -1.10806514E-01  3.32643621E-01 -2.64311745E-01
  1.46790738E-01 -2.59605715E-02  3.88511318E-01 -3.72604287E+00 -1.54616705E+01
  2.28513550E+00  3.03187922E+00  4.29136290E-02  1.85107317E-01  2.36746621E-01
  1.57495582E-01  3.83814093E+00  5.10778311E+00  4.58898116E+00 -3.42457945E-01
 -4.53093588E-01 -4.50798970E-01 -2.89753841E-01 -3.84490291E-01 -3.06873786E-01
  2.50920818E+00  2.35297759E+00  3.52910125E+00 -3.04303895E-01 -2.61004935E-01
 -2.59692116E-01  4.43036430E+00  4.67998886E+00  2.86790174E+00  4.46825926E-01
  4.22836625E-01  4.17044770E-01  9.27894435E-01  8.71243202E-01  1.24729151E+00
 -1.07451017E-01 -8.13381703E-02 -8.00028499E-02 -1.92605882E+00 -2.60792978E+00