Gly.e+-localize-molden.E+.fchk                                                                      
        SP                           RHF                        PSX-TZ
Number of electrons                        I                1
Number of alpha electrons                  I                1
Number of beta electrons                   I                0
Number of atoms                            I                2
Number of basis functions                  I              112
Number of independent functions            I              112
Atomic numbers                             I   N=           2
           1           1
Current cartesian coordinates              R   N=           6
  1.34943075E+00  3.81259805E-01  5.96059115E+00 -1.29605355E+00 -2.87424698E+00
  6.00118247E+00
Shell types                                I   N=          30
           0           0           0           0           0           0
           1           1           1           1           2           2
           2           3           3           0           0           0
           0           0           0           1           1           1
           1           2           2           2           3           3
Shell to atom map                          I   N=          30
           1           1           1           1           1           1
           1           1           1           1           1           1
           1           1           1           2           2           2
           2           2           2           2           2           2
           2           2           2           2           2           2
Coordinates of each shell                  R   N=          90
  1.34943075E+00  3.81259805E-01  5.96059115E+00  1.34943075E+00  3.81259805E-01
  5.96059115E+00  1.34943075E+00  3.81259805E-01  5.96059115E+00  1.34943075E+00
  3.81259805E-01  5.96059115E+00  1.34943075E+00  3.81259805E-01  5.96059115E+00
  1.34943075E+00  3.81259805E-01  5.96059115E+00  1.34943075E+00  3.81259805E-01
  5.96059115E+00  1.34943075E+00  3.81259805E-01  5.96059115E+00  1.34943075E+00
  3.81259805E-01  5.96059115E+00  1.34943075E+00  3.81259805E-01  5.96059115E+00
  1.34943075E+00  3.81259805E-01  5.96059115E+00  1.34943075E+00  3.81259805E-01
  5.96059115E+00  1.34943075E+00  3.81259805E-01  5.96059115E+00  1.34943075E+00
  3.81259805E-01  5.96059115E+00  1.34943075E+00  3.81259805E-01  5.96059115E+00
 -1.29605355E+00 -2.87424698E+00  6.00118247E+00 -1.29605355E+00 -2.87424698E+00
  6.00118247E+00 -1.29605355E+00 -2.87424698E+00  6.00118247E+00 -1.29605355E+00
 -2.87424698E+00  6.00118247E+00 -1.29605355E+00 -2.87424698E+00  6.00118247E+00
 -1.29605355E+00 -2.87424698E+00  6.00118247E+00 -1.29605355E+00 -2.87424698E+00
  6.00118247E+00 -1.29605355E+00 -2.87424698E+00  6.00118247E+00 -1.29605355E+00
 -2.87424698E+00  6.00118247E+00 -1.29605355E+00 -2.87424698E+00  6.00118247E+00
 -1.29605355E+00 -2.87424698E+00  6.00118247E+00 -1.29605355E+00 -2.87424698E+00
  6.00118247E+00 -1.29605355E+00 -2.87424698E+00  6.00118247E+00 -1.29605355E+00
 -2.87424698E+00  6.00118247E+00 -1.29605355E+00 -2.87424698E+00  6.00118247E+00
Number of primitives per shell             I   N=          30
           1           1           1           1           1           1
           1           1           1           1           1           1
           1           1           1           1           1           1
           1           1           1           1           1           1
           1           1           1           1           1           1
Primitive exponents                        R   N=          30
  1.70647199E-02  4.34270059E-02  1.10514843E-01  2.81242750E-01  7.15718198E-01
  1.82138931E+00  4.96312946E-02  1.24207468E-01  3.10842086E-01  7.77914596E-01
  9.50648091E-02  2.33677729E-01  5.74400577E-01  1.59567515E-01  4.27306458E-01
  1.70647199E-02  4.34270059E-02  1.10514843E-01  2.81242750E-01  7.15718198E-01
  1.82138931E+00  4.96312946E-02  1.24207468E-01  3.10842086E-01  7.77914596E-01
  9.50648091E-02  2.33677729E-01  5.74400577E-01  1.59567515E-01  4.27306458E-01
Contraction coefficients                   R   N=          30
  1.00000000E+00  1.00000000E+00  1.00000000E+00  1.00000000E+00  1.00000000E+00
  1.00000000E+00  1.00000000E+00  1.00000000E+00  1.00000000E+00  1.00000000E+00
  1.00000000E+00  1.00000000E+00  1.00000000E+00  1.00000000E+00  1.00000000E+00
  1.00000000E+00  1.00000000E+00  1.00000000E+00  1.00000000E+00  1.00000000E+00
  1.00000000E+00  1.00000000E+00  1.00000000E+00  1.00000000E+00  1.00000000E+00
  1.00000000E+00  1.00000000E+00  1.00000000E+00  1.00000000E+00  1.00000000E+00
Alpha Orbital Energies                     R   N=         112
 -2.19079911E-02  1.19202263E-02  4.92488187E-02  5.64121854E-02  6.91062825E-02
  8.16477033E-02  1.07244549E-01  1.30177426E-01  1.40962708E-01  1.89009715E-01
  1.93190416E-01  2.20661662E-01  2.49303453E-01  2.73108516E-01  2.94331298E-01
  3.00276767E-01  3.13909163E-01  3.23913078E-01  3.34998851E-01  3.48251168E-01
  3.56342239E-01  3.72590971E-01  3.92726213E-01  4.31504255E-01  4.33368975E-01
  4.94313769E-01  5.10489235E-01  5.21460904E-01  5.45123478E-01  6.26536150E-01
  6.38497370E-01  6.79263610E-01  7.21663514E-01  7.55163567E-01  7.61299822E-01
  7.97731500E-01  8.04478333E-01  8.14470215E-01  8.16433942E-01  8.45459547E-01
  8.47294714E-01  8.58110853E-01  8.88569854E-01  8.93395832E-01  8.94594209E-01
  9.18997752E-01  9.26309331E-01  9.30000042E-01  9.54696504E-01  9.83507891E-01
  1.01920303E+00  1.02870247E+00  1.04745956E+00  1.05656438E+00  1.16306190E+00
  1.17899855E+00  1.27040171E+00  1.37061529E+00  1.43575817E+00  1.47149476E+00
  1.50267088E+00  1.76779561E+00  1.80304786E+00  1.81988268E+00  1.88755398E+00
  1.91284778E+00  1.93037835E+00  2.02659115E+00  2.15010672E+00  2.18181937E+00
  2.19859504E+00  2.24090205E+00  2.25296217E+00  2.30008327E+00  2.30711384E+00
  2.38895507E+00  2.48027801E+00  2.51667306E+00  2.53261196E+00  2.67844117E+00
  2.83102308E+00  2.90942827E+00  3.03450558E+00  3.03850680E+00  3.10436035E+00
  3.11159081E+00  3.15136553E+00  3.19020646E+00  3.19386390E+00  3.25173134E+00
  3.29079258E+00  3.33368139E+00  3.36081640E+00  3.47775750E+00  3.60048942E+00
  3.60686877E+00  3.64807251E+00  3.65164317E+00  3.70642653E+00  3.90220956E+00
  4.08362775E+00  4.59695308E+00  6.09664807E+00  6.14875101E+00  7.97247695E+00
  7.97530927E+00  8.02624135E+00  8.02851492E+00  8.25139302E+00  8.30750234E+00
  1.83091397E+01  1.83597867E+01
Beta Orbital Energies                      R   N=         112
  0.00000000E+00  0.00000000E+00  0.00000000E+00  0.00000000E+00  0.00000000E+00
  0.00000000E+00  0.00000000E+00  0.00000000E+00  0.00000000E+00  0.00000000E+00
  0.00000000E+00  0.00000000E+00  0.00000000E+00  0.00000000E+00  0.00000000E+00
  0.00000000E+00  0.00000000E+00  0.00000000E+00  0.00000000E+00  0.00000000E+00
  0.00000000E+00  0.00000000E+00  0.00000000E+00  0.00000000E+00  0.00000000E+00
  0.00000000E+00  0.00000000E+00  0.00000000E+00  0.00000000E+00  0.00000000E+00
  0.00000000E+00  0.00000000E+00  0.00000000E+00  0.00000000E+00  0.00000000E+00
  0.00000000E+00  0.00000000E+00  0.00000000E+00  0.00000000E+00  0.00000000E+00
  0.00000000E+00  0.00000000E+00  0.00000000E+00  0.00000000E+00  0.00000000E+00
  0.00000000E+00  0.00000000E+00  0.00000000E+00  0.00000000E+00  0.00000000E+00
  0.00000000E+00  0.00000000E+00  0.00000000E+00  0.00000000E+00  0.00000000E+00
  0.00000000E+00  0.00000000E+00  0.00000000E+00  0.00000000E+00  0.00000000E+00
  0.00000000E+00  0.00000000E+00  0.00000000E+00  0.00000000E+00  0.00000000E+00
  0.00000000E+00  0.00000000E+00  0.00000000E+00  0.00000000E+00  0.00000000E+00
  0.00000000E+00  0.00000000E+00  0.00000000E+00  0.00000000E+00  0.00000000E+00
  0.00000000E+00  0.00000000E+00  0.00000000E+00  0.00000000E+00  0.00000000E+00
  0.00000000E+00  0.00000000E+00  0.00000000E+00  0.00000000E+00  0.00000000E+00
  0.00000000E+00  0.00000000E+00  0.00000000E+00  0.00000000E+00  0.00000000E+00
  0.00000000E+00  0.00000000E+00  0.00000000E+00  0.00000000E+00  0.00000000E+00
  0.00000000E+00  0.00000000E+00  0.00000000E+00  0.00000000E+00  0.00000000E+00
  0.00000000E+00  0.00000000E+00  0.00000000E+00  0.00000000E+00  0.00000000E+00
  0.00000000E+00  0.00000000E+00  0.00000000E+00  0.00000000E+00  0.00000000E+00
  0.00000000E+00  0.00000000E+00
Alpha MO coefficients                      R   N=       12544
 -8.13161029E-02 -1.42989653E-01 -3.12115377E-01  2.77797382E-02  5.71173151E-02
 -9.13493235E-04  1.07394998E-02  1.33632317E-02  1.89998577E-01  5.93164035E-03
  8.67984483E-03  2.53622038E-01  2.09012421E-03  2.35872183E-03 -2.14127279E-02
 -4.51416173E-04 -7.06319760E-04 -2.83518838E-02  7.08047175E-02  6.93793975E-02
  1.10112411E-01 -4.13494674E-03  1.12372013E-02  1.45479645E-02  8.70441782E-02
  8.48764305E-02  8.40788038E-02 -5.90830580E-03 -2.08894171E-03 -2.61424605E-03
  2.13741960E-02  2.15942283E-02  2.30693143E-02  5.82181081E-04  7.68173171E-04
  9.57499532E-04  1.85567334E-03  2.92516959E-03 -1.62568641E-01  5.05505130E-03
  3.47825008E-03 -7.51351712E-02 -2.08429069E-03 -3.00801926E-03 -7.52950395E-02
 -7.58616806E-04  9.38594957E-04  1.24059317E-03 -5.03047045E-02  1.15055567E-03
  9.27375868E-04 -2.24808349E-02  4.80566677E-05 -4.09927472E-05 -2.27438857E-02
 -6.08278497E-04  1.02888207E+00 -4.07185776E-01 -4.83190972E-01  6.68948521E-02
  9.23705093E-02 -2.18754197E-03 -5.58252559E-02 -6.36787020E-02  4.07266925E-01
 -1.62200957E-02 -1.75534872E-02  3.52114583E-01 -8.13501659E-03 -1.00674103E-02
 -2.46930891E-02  5.44086882E-03  6.37165925E-03 -3.88565441E-02  1.71556965E-01
  1.74345677E-01  2.05308106E-01  5.30995598E-03  9.21279756E-03  1.17342696E-02
  1.55656612E-01  1.53079450E-01  1.53133403E-01 -7.02555724E-03  2.04647247E-03
  2.47905802E-03  3.63650734E-02  3.66784274E-02  3.82761810E-02  8.19504063E-04
 -4.08756158E-04 -4.80248586E-04 -4.04049476E-04 -2.58393672E-03 -2.14153346E-01
 -2.32179543E-03 -2.45643191E-03 -9.50779647E-02 -3.27730809E-04 -8.34870199E-04
 -9.30210054E-02  6.06383340E-03  1.74848452E-03  1.36067262E-03 -6.66699470E-02
 -1.52547151E-04  1.41726384E-04 -2.99737541E-02  1.54967680E-03  1.68217156E-03
 -3.03504929E-02 -1.16255504E-03 -2.23017819E+00  1.27311834E+00  6.46308966E-01
 -1.76380226E-01 -1.33779812E-01  5.10631327E-04  6.10031618E-02  7.40770662E-02
 -5.95131419E-01  1.34576045E-02  1.49046492E-02 -4.45364722E-01 -9.29953795E-03
 -1.12641782E-02  3.62400265E-02  7.41003861E-04  1.01628603E-03  4.62603956E-02
 -3.01161385E-01 -3.19113420E-01 -3.21523047E-01 -5.37022806E-02  3.12126436E-02
  3.73536716E-02 -2.19210005E-01 -2.12801902E-01 -2.16674282E-01  1.77527610E-02
 -1.68178304E-03 -1.91579194E-03 -4.72941458E-02 -4.81984888E-02 -4.96068086E-02
 -2.53302114E-03  5.44032148E-04  6.39146651E-04 -2.21053377E-02 -2.37123816E-02
  2.84861270E-01 -2.64994327E-03 -6.73762462E-03  1.20761415E-01 -9.09457040E-03
 -1.06168260E-02  1.16132476E-01 -1.19290898E-02 -4.99475900E-03 -6.66993923E-03
  8.51473533E-02 -3.99644923E-03 -3.87907866E-03  3.91479805E-02 -2.04971355E-03
 -2.50404121E-03  3.98163564E-02  1.71517302E-03  2.14245281E+00 -1.95402751E+00
 -7.69624442E-01  3.22090868E-01  2.17636634E-01  3.06772063E-03 -1.94105387E-01
 -2.38091907E-01  1.92887525E-01 -1.34057760E-01 -1.63811599E-01  3.01759023E-02
  1.53973736E-02  1.89536824E-02 -2.96355997E-03  1.57541831E-02  1.93082427E-02
 -3.75189890E-04  5.19725996E-01  5.14534434E-01  4.98384622E-01 -1.45410850E-02
  3.08425397E-02  3.78963987E-02  3.25614643E-01  3.27888531E-01  3.31479221E-01
  5.83994632E-03 -3.12343905E-03 -3.92479099E-03  7.46909303E-02  7.44628182E-02
  7.28877035E-02 -5.62968650E-04  1.35315856E-03  1.68238612E-03  9.63493035E-02
  1.15358262E-01 -1.79297673E-02  3.55991981E-02  4.76656999E-02 -2.78174456E-03
  4.55117005E-02  5.57059608E-02  2.75859194E-04  8.59778328E-03  2.70401763E-02
  3.36586091E-02 -2.73287980E-03  1.35494489E-02  1.58135642E-02 -1.31897399E-03
  1.12436175E-02  1.38051407E-02 -1.44964884E-03 -3.28432539E-04  3.08623189E-01
 -2.52502051E+00 -2.16723796E+00  6.20929383E-01  4.36953477E-01  8.25439878E-03
  1.44390638E-01  1.71664496E-01  2.49455099E-01  5.53302138E-02  5.84479243E-02
  2.77747305E-01  1.55328922E-02  1.97530251E-02 -3.79531305E-02 -4.27045197E-03
 -4.14428648E-03 -1.89538531E-02  7.99822321E-01  7.54535030E-01  8.37250977E-01
 -1.21521203E-01 -1.35865593E-02 -1.93107310E-02  6.19803982E-01  6.24276700E-01
  6.30069117E-01  1.13373538E-02  1.15447157E-03  2.31561644E-03  1.44310179E-01
  1.42527995E-01  1.43153403E-01 -4.57082560E-03 -6.94930176E-04 -1.06997235E-03
  2.99766334E-02  4.97285866E-02 -1.91619020E-01  3.03905722E-02  3.10734617E-02
 -8.04045857E-02  6.17375537E-03  1.02594945E-02 -7.78377567E-02  6.95126098E-03
 -5.44044226E-03 -4.23456555E-03 -4.79176981E-02 -1.51539229E-03 -1.50884675E-03
 -2.20570388E-02 -1.78853361E-03 -1.32021194E-03 -2.24244326E-02 -1.08970564E-03
  2.89995512E+00 -6.91593919E+00 -3.05764025E+00  1.22201427E+00  8.77736302E-01
  1.86457545E-02  9.50731169E-02  9.53520941E-02 -5.19321645E-01  8.80841123E-02
  8.96156580E-02 -1.81614170E-01  5.93483279E-03  8.87142594E-03  3.15237964E-03
  7.51129448E-04  2.93549531E-03  2.64247041E-02  1.88637014E+00  1.89765831E+00
  1.75438295E+00  2.92774077E-02 -1.88167039E-02 -2.73207798E-02  1.22494642E+00
  1.23618186E+00  1.23162034E+00  3.14863186E-02  2.42416579E-03  4.12266834E-03
  2.85870508E-01  2.83718162E-01  2.83179534E-01 -6.13046404E-03 -7.39193449E-04
 -1.17623449E-03  2.78234758E-02  4.90539825E-02  1.01303560E-01  2.00686039E-02
  2.60178167E-02  4.28066222E-02  8.31415706E-03  1.55626403E-02  4.08461524E-02
 -5.03296729E-03  9.45997340E-03  1.52115121E-02  3.62245071E-02  3.73037145E-03
  6.44769570E-03  1.65109829E-02  4.19106746E-03  6.76606902E-03  1.65298500E-02
  1.02145236E-04 -1.11088083E-02  5.74343296E-02  4.52292706E-02 -1.16182595E-02
 -8.02011843E-03 -1.36138370E-04  2.11895709E-01 -1.80308809E-01 -2.67569859E-03
  4.17176577E-01 -3.43672341E-01 -4.37462084E-04 -3.72342591E-02  2.96656672E-02
 -2.38723929E-04 -4.45169797E-02  3.62777688E-02  7.19524632E-07  4.47517097E-02
 -7.29718127E-02 -1.38527344E-02  1.58410235E-02  9.94272717E-02 -7.89461051E-02
 -2.07800201E-02 -2.10095853E-03 -1.19894009E-02 -2.24330193E-03 -3.30961006E-02
  2.69748914E-02  1.52750061E-03 -6.79531202E-03 -2.55853741E-03  1.06419071E-03
  7.33371367E-03 -5.93761295E-03 -2.74527744E-01  2.22335251E-01 -9.20631469E-05
 -1.22094108E-01  9.83406520E-02  3.88941599E-03 -1.24398435E-01  1.00741333E-01
 -4.50158448E-03  9.81890192E-04 -8.88852841E-02  7.47447417E-02  8.90969342E-05
 -3.62669284E-02  2.64446225E-02 -2.06994728E-03 -3.63811625E-02  2.96108985E-02
  2.13363880E-03 -5.50391106E-04 -2.82967094E-02  6.41340799E-02  3.82591738E-02
 -1.51350507E-02 -1.02870200E-02 -1.95442313E-04  8.94886480E-01 -7.42532059E-01
  1.44776019E-02  8.14628422E-01 -6.60995642E-01  7.02485662E-03 -8.20999564E-02
  6.62678009E-02 -7.54047529E-04 -8.27495465E-02  6.69018884E-02 -7.51904731E-04
 -4.08284626E-02 -9.66814762E-03 -1.79710296E-02 -5.33843718E-03  1.36594892E-01
 -1.08853228E-01 -1.60032194E-02 -1.29626292E-02 -1.54120897E-02 -9.27971117E-04
 -3.81139210E-02  3.05770725E-02 -5.00978337E-03 -1.74824203E-03 -3.18315500E-03
 -2.43821329E-04  8.52030867E-03 -6.86007244E-03 -5.30210335E-01  4.21136809E-01
 -5.08210419E-03 -2.47374741E-01  2.06992100E-01  3.38217650E-04 -2.46415033E-01
  1.99322189E-01 -3.54982136E-03  8.31006910E-04 -1.65473420E-01  1.36453961E-01
 -1.17041888E-03 -6.91413991E-02  5.18441457E-02  1.12576142E-03 -6.96495244E-02
  5.61706871E-02 -2.46611404E-03  3.77130655E-04  4.03416792E+00 -6.51064742E+00
 -2.07976670E+00  1.15040869E+00  8.19244249E-01  1.62220213E-02 -1.94704303E-01
 -2.44106241E-01 -1.89474586E-01  1.08286782E-01  1.29241631E-01 -9.31990038E-02
 -6.11085576E-02 -7.50320654E-02 -4.74993259E-03 -2.63413402E-02 -3.19606264E-02
  1.93032961E-02  2.03256252E+00  2.09764194E+00  1.77510529E+00  1.78575069E-01
 -7.16528469E-03 -1.06102277E-02  1.15826599E+00  1.17154237E+00  1.17811681E+00
  3.61634515E-02 -4.93594712E-03 -5.50257935E-03  2.72073502E-01  2.70631506E-01
  2.64249274E-01 -3.89464152E-03  7.11381836E-04  7.34002997E-04 -2.72834518E-01
 -3.42451093E-01  5.34573996E-02 -1.44253848E-01 -1.64506254E-01  2.90119094E-02
 -1.18666989E-01 -1.44988783E-01  3.14452257E-02  6.47271305E-03 -6.24062067E-02
 -7.66546221E-02  2.66582408E-02 -2.95820842E-02 -3.51454251E-02  1.22761354E-02
 -2.64521068E-02 -3.22256246E-02  1.21323463E-02 -3.07970815E-04 -3.42894542E+00
  4.36474061E+00  9.50062623E-01 -7.06354419E-01 -4.72997342E-01 -1.00353460E-02
 -8.46004932E-01 -1.04241098E+00 -2.95340966E-01 -2.71118711E-01 -3.36563923E-01
 -3.94673441E-01 -1.35943907E-02 -1.62834288E-02  4.87628140E-02  1.42688139E-02
  1.78395568E-02  3.63171479E-02 -1.22117950E+00 -1.32988279E+00 -1.13737364E+00
 -3.00910420E-01 -3.37204611E-02 -4.29914642E-02 -6.84265746E-01 -6.81424810E-01
 -6.53023202E-01  7.72687342E-03  9.23976467E-03  1.17232261E-02 -1.49032351E-01
 -1.49953301E-01 -1.54739569E-01 -2.58035939E-03 -1.21652566E-03 -1.56875734E-03
 -5.71356372E-03 -2.13847920E-02  2.76245802E-01 -4.43524076E-02 -3.12080679E-02
  1.15813975E-01  7.57107333E-03  1.03130457E-02  1.13120855E-01 -6.82355130E-03
  1.43232573E-02  1.90795522E-02  7.46178336E-02  8.51305408E-03  9.62011888E-03
  3.49045149E-02  5.16809920E-03  6.65004345E-03  3.53179930E-02  1.06209193E-03
 -2.28618455E+00  9.06995907E+00  3.30808378E+00 -1.11633509E+00 -6.16077231E-01
 -1.30741039E-02 -7.19250238E-01 -8.88837471E-01  6.32875666E-01  7.45537938E-02
  8.83451022E-02  9.28614565E-03 -5.12777071E-02 -6.28476264E-02  5.34121929E-03
 -3.02594009E-02 -3.68331471E-02 -6.37554040E-03 -1.28962919E+00 -1.20791288E+00
 -1.42940742E+00  2.30899453E-01 -2.69301591E-02 -3.30683475E-02 -9.16778161E-01
 -9.04781127E-01 -9.33096249E-01  3.28540470E-02  2.22484569E-03  3.07612874E-03
 -1.96759263E-01 -1.97138678E-01 -1.96759717E-01 -9.68179195E-04 -1.68769025E-03
 -2.16254732E-03 -2.41222082E-01 -3.04497933E-01 -4.34334071E-03 -1.33381622E-01
 -1.49472121E-01  1.51778471E-03 -1.10560221E-01 -1.35211502E-01  4.51407208E-03
  6.87880310E-03 -5.77032856E-02 -7.11229179E-02 -3.06000792E-03 -2.81792803E-02
 -3.30290653E-02 -1.89329126E-04 -2.37233789E-02 -2.87775266E-02  1.09486762E-04
  1.07497396E-03  6.09556006E-01 -4.19267659E+00 -5.84033874E-01  1.90604198E-01
  3.30235025E-02 -1.59179065E-04 -1.68072873E+00 -2.06811791E+00 -1.08652848E+00
 -5.87530404E-01 -7.24597477E-01 -9.25918984E-01  5.03225779E-02  6.20364972E-02
  1.06021364E-01  2.96861661E-02  3.66312685E-02  8.64580077E-02  1.39926749E-01
 -8.52940159E-03  2.00360136E-01 -4.09392734E-01 -3.35947802E-02 -4.29027412E-02
  7.30567929E-02  7.21924473E-02  1.33422878E-01 -1.79921163E-03  1.06820228E-02
  1.35123315E-02  1.93170729E-02  1.99153224E-02  5.80065659E-03  1.54007815E-03
 -1.97239822E-03 -2.49967100E-03  2.32507726E-01  2.55484814E-01  6.38246869E-01
  2.54620111E-02  7.37760670E-02  2.71885113E-01  1.18085362E-01  1.45732436E-01
  2.66904635E-01 -1.31058569E-02  5.68944487E-02  7.33963208E-02  1.75090040E-01
  3.32571474E-02  3.68540903E-02  8.15896884E-02  2.36966729E-02  2.92787417E-02
  8.26785837E-02  2.84330679E-03 -7.76544833E-03 -2.94149818E-02  6.80648170E-03
 -2.27105774E-03 -4.39440927E-03 -6.91256972E-05  1.46009083E+00 -1.15339150E+00
 -4.00962437E-03  9.65643130E-01 -7.81067512E-01  1.26783769E-03 -1.04272656E-01
  8.57718823E-02 -7.02372265E-04 -9.08894024E-02  7.41132434E-02  7.43419117E-05
 -2.13239953E-01  1.97012913E-01 -5.21247243E-03 -5.49415170E-02  2.11705193E-01
 -1.70230417E-01  2.73967090E-02 -3.88670360E-02 -4.92316304E-03  7.91979644E-03
 -5.83162496E-02  4.70849947E-02 -8.41546065E-03  5.65905774E-03 -1.52368331E-03
 -1.71873019E-03  1.25052001E-02 -1.00728316E-02 -5.98109126E-01  4.69185497E-01
 -8.69073033E-04 -3.01539893E-01  2.76284860E-01 -4.58572700E-03 -2.95632530E-01
  2.41810439E-01  2.94011038E-03 -8.19238953E-04 -1.86508193E-01  1.54597648E-01
 -6.23776961E-05 -7.96866646E-02  6.20069412E-02 -1.47227973E-03 -7.90153248E-02
  6.45535236E-02  1.55867075E-03 -4.03665972E-04  5.01540379E-03  4.41902874E-02
  1.45778634E-02 -2.97888117E-03  8.77649333E-05  1.23262400E-05 -1.11334606E+00
  9.41297527E-01  4.25699879E-03 -5.98542008E-01  4.96207021E-01  9.97908437E-04
  6.64820705E-02 -5.39172290E-02 -1.63843810E-04  5.29422408E-02 -4.32307912E-02
 -7.96933034E-05 -1.25002413E-01  1.29173062E-01 -2.28438733E-03 -2.59883074E-02
 -7.03295395E-02  5.85485254E-02  4.35342244E-06 -1.26163125E-03 -7.70371318E-04
  4.83348209E-04  1.37113698E-02 -1.12384537E-02 -1.50366882E-03  1.57343905E-03
  2.00272419E-05 -4.00568310E-04 -3.00304294E-03  2.45282797E-03  3.48041745E-01
 -2.61109980E-01 -9.30062532E-04  1.91127576E-01 -1.83337137E-01 -1.26530574E-02
  1.85116497E-01 -1.50752937E-01  1.23165852E-02 -2.72256493E-03  1.10703726E-01
 -9.19048857E-02 -1.31262654E-04  4.68335481E-02 -3.60513539E-02  2.22218422E-03
  4.63736692E-02 -3.78568347E-02 -2.41603312E-03  5.02712042E-04 -1.04234306E+00
 -6.64809878E+00 -2.05433006E+00  2.56747790E-01 -9.99177407E-02 -2.93345692E-03
  3.45166457E+00  4.26092243E+00 -1.06263862E+00  1.08131143E+00  1.34540933E+00
 -6.89950141E-01 -7.43865683E-03 -1.04878201E-02  7.86920486E-02 -3.54436209E-02
 -4.48311843E-02  5.50888571E-02 -4.27278638E-01 -8.04910573E-01  6.31714805E-02
 -1.03161659E+00  3.23068501E-01  4.01232791E-01 -6.24619258E-02 -8.05791151E-02
  2.54428826E-02 -4.96787594E-02 -5.12092855E-02 -6.42953097E-02 -2.49651836E-02
 -2.35488740E-02 -3.80037753E-02  3.74715218E-03  1.13866313E-02  1.42607615E-02
 -1.25792861E-01 -9.18334043E-02  4.50423227E-01  1.21103441E-01  5.00136768E-02
  1.59748473E-01 -9.83190451E-02 -1.25483869E-01  1.41926919E-01 -5.30635453E-02
 -5.86332226E-02 -7.81860635E-02  1.14383923E-01 -3.45058023E-02 -3.91626991E-02
  5.27742479E-02 -2.32929745E-02 -2.96576991E-02  5.28415813E-02  7.37318977E-04
  7.77320169E-01  6.40011371E+00  1.48321001E+00  1.71678575E-03  2.85331468E-01
  5.87738365E-03  2.41813329E+00  2.97090280E+00  1.01290297E+00  4.14424701E-01
  5.13298019E-01  6.19673331E-01  7.20644205E-02  8.84361564E-02 -3.67372844E-02
  3.79459976E-02  4.62598679E-02 -5.59394938E-02  7.27725367E-01  1.04813945E+00
  3.69345358E-01  8.99467342E-01  5.40993157E-02  7.04617318E-02  3.58309824E-01
  3.87239657E-01  2.22988733E-01  7.87979121E-02  2.60500709E-02  3.09548238E-02
  8.52041995E-02  8.37147934E-02  1.04881874E-01 -3.80133702E-03 -5.36483415E-03
 -6.36201441E-03  3.69623048E-01  5.01282021E-01 -3.73842443E-01  2.90856506E-01
  2.89849103E-01 -1.21309793E-01  1.38440134E-01  1.69409481E-01 -1.00798159E-01
  5.53610962E-02  8.76947253E-02  1.06808076E-01 -1.06125563E-01  3.88547424E-02
  4.75684894E-02 -5.53267646E-02  3.80394731E-02  4.63489964E-02 -5.83713295E-02
 -8.33145492E-03 -5.46880711E-01 -9.52489656E+00 -1.92804772E+00  1.48002633E-01
 -3.14033761E-01 -6.29701854E-03  3.49423536E+00  4.30506887E+00 -5.71587720E-01
  7.84057314E-01  9.70149733E-01 -6.00029065E-01  4.87510050E-02  5.78601879E-02
  1.30668438E-02  3.11838372E-02  3.81298704E-02  5.38914649E-02 -7.19915426E-01
 -1.18514571E+00 -2.25091422E-01 -1.27990924E+00  1.02591166E-01  1.25580896E-01
 -3.79162196E-01 -4.07753705E-01 -1.66634349E-01 -8.34838261E-02  2.28916506E-02
  2.94098652E-02 -8.71137073E-02 -8.60942536E-02 -1.22403922E-01  3.76111873E-03
 -5.53626596E-03 -7.13774154E-03  3.17080985E-01  4.54580793E-01  3.06145088E-01
  3.17218494E-01  2.93975920E-01  1.03278404E-01  7.37581129E-02  8.76023168E-02
  8.25256390E-02 -5.76822833E-02  6.96401489E-02  8.42432363E-02  1.02815744E-01
  2.90889404E-02  3.65349419E-02  5.36963984E-02  3.53988846E-02  4.33101958E-02
  5.73468233E-02  1.03405604E-02  1.52934869E-01  1.24128478E+01  4.96838236E+00
 -1.16010190E+00 -3.14990491E-01 -7.21658159E-03  4.16006140E+00  5.10707704E+00
 -3.48584892E-01  1.27807239E+00  1.55284086E+00 -7.44666873E-01 -1.08751328E-03
  4.52347280E-04  7.54361764E-02 -2.53038263E-02 -2.92295911E-02  7.70064709E-02
 -1.23915629E-01  2.72385277E-01 -1.40600758E+00  1.07220935E+00  2.66989832E-01
  3.18181264E-01 -6.42457360E-01 -5.94152949E-01 -5.68076384E-01  1.37459888E-01
 -3.00024300E-02 -3.35802386E-02 -8.82592390E-02 -9.39549544E-02 -1.12190509E-01
 -1.65828194E-02  7.74362295E-03  8.82122038E-03 -8.40088403E-02 -6.35198610E-04
  5.11056227E-01  1.85437305E-01  1.14053290E-01  2.54747566E-01 -9.53453743E-02
 -1.11352016E-01  2.64740567E-01  3.03192356E-02 -4.84219817E-02 -5.95298332E-02
  1.60248682E-01 -3.20783925E-02 -3.20122219E-02  7.51091642E-02 -2.10124429E-02
 -2.41152913E-02  7.67910315E-02  4.09712690E-03  5.56294556E-02 -5.34385437E+00
  4.80357414E-01 -1.59146700E-01 -4.78257054E-01 -4.65956936E-03  2.52288701E+00
  3.10491968E+00  5.71912829E-01  7.34500445E-01  9.08208350E-01  1.06333238E+00
 -2.89110280E-02 -3.56149644E-02 -1.41818067E-01 -8.50216835E-03 -1.09958916E-02
 -9.68930999E-02 -1.27270583E+00 -1.50878942E+00 -2.58379582E-01 -6.68087899E-01
  1.44288910E-01  1.75486877E-01 -5.56059127E-01 -5.95672019E-01 -6.56404223E-01
 -1.07974476E-01  1.29459909E-03  1.53057714E-03 -1.74834089E-01 -1.67181630E-01
 -1.53466405E-01  2.08728140E-02  3.60099132E-04  5.14084727E-04 -8.81394321E-02
 -4.97200370E-02 -7.90863449E-01  1.16926399E-01  5.88915517E-02 -3.73931431E-01
 -7.86584042E-02 -9.76014982E-02 -3.79705082E-01 -1.42040689E-02 -1.87501451E-02
 -3.03150625E-02 -2.21702645E-01 -2.32089243E-02 -2.11325101E-02 -1.00535108E-01
 -6.84450068E-03 -9.07567154E-03 -1.01717177E-01 -3.41249739E-03 -2.36104336E+00
  1.85529931E+01  1.01890332E+01 -3.22809834E+00 -1.80257456E+00 -2.43314844E-02
  2.12065705E+00  2.61767335E+00  5.58748938E-02  7.11756502E-01  8.92465096E-01
  4.68205374E-01  3.51911125E-02  4.11187207E-02 -7.93040839E-02 -3.77095836E-03
 -5.82897036E-03 -2.70006884E-02 -3.96481291E+00 -3.75304854E+00 -4.47151370E+00
  5.87833894E-01  1.21407103E-01  1.49538463E-01 -2.81782397E+00 -2.78192859E+00
 -2.89301905E+00  9.70217649E-02 -1.09408412E-02 -1.40426749E-02 -6.05206262E-01
 -6.07806821E-01 -5.99965411E-01 -6.77912075E-03  1.52225648E-03  1.98517427E-03
  1.09337058E-01  1.54674418E-01 -3.83235591E-01  1.26161732E-01  1.08699980E-01
 -1.56731781E-01 -7.04410237E-04 -6.57542301E-03 -1.43517453E-01  3.65941834E-02
  1.28171806E-03  1.13376942E-03 -8.76369783E-02  7.58512069E-03  4.19094709E-03
 -4.19899830E-02  3.33887487E-03  2.86686318E-03 -4.47815446E-02 -7.64283494E-03
  3.71275019E-01 -1.39707705E+01 -7.83492136E+00  1.86945053E+00  8.13537360E-01
  1.32709452E-02  3.64330761E+00  4.47909067E+00  3.62789708E-01  9.01899084E-01
  1.09842903E+00  1.04215526E-01  7.57757488E-02  9.53911870E-02 -4.66545821E-03
  2.10103005E-02  2.65751974E-02 -3.35161299E-02  8.53239915E-01  4.08794022E-01
  2.65829623E+00 -1.23796391E+00  1.30018361E-01  1.56301630E-01  1.40941325E+00
  1.34509626E+00  1.25885341E+00 -1.75773293E-01  1.82206066E-02  2.32210293E-02
  2.49641080E-01  2.56783684E-01  2.91967941E-01  1.94890037E-02 -2.71885000E-03
 -3.43092212E-03  3.07568402E-01  4.85352612E-01 -8.60641978E-02  3.86865925E-01
  3.46117953E-01 -9.34299583E-02  6.62511552E-02  8.62774894E-02 -1.02691912E-01
 -2.28571120E-02  5.03367522E-02  6.13885158E-02 -5.70807097E-02  1.63344514E-02
  2.42138716E-02 -1.89637228E-02  2.16392261E-02  2.72241717E-02 -1.85110689E-02
  8.65793333E-04  1.19261569E+00  4.39853050E+00  1.08652495E+00  4.87044283E-01
  8.12057035E-01  9.24755814E-03  3.37342003E+00  4.15144518E+00 -6.45981587E-01
  1.22871474E+00  1.51649430E+00 -1.23813084E+00  1.32738353E-02  1.64819270E-02
  1.91592559E-01  1.33561460E-02  1.61064732E-02  9.57644556E-02  2.23409746E+00
  2.70968984E+00  1.52449839E+00  1.32208779E+00  1.83246715E-01  2.30035665E-01
  1.11184301E+00  1.15800022E+00  9.51609179E-01  1.23773684E-01 -2.66406495E-02
 -3.41501115E-02  2.67776945E-01  2.61662091E-01  2.93523217E-01 -1.63663974E-02
  5.37107237E-03  6.89042197E-03  1.75530272E-01  2.83345770E-01  9.35838941E-01
  2.48922204E-01  2.14888886E-01  3.98297685E-01 -4.42274149E-03 -5.87520744E-03
  4.10277738E-01  3.15034322E-02  1.72722090E-02  1.85410938E-02  2.29392391E-01
  2.02592208E-03  5.21216866E-03  1.08119900E-01  1.54010449E-02  1.88390660E-02
  1.06845143E-01 -3.06150138E-03  3.50810260E+00 -1.22595756E+01 -5.37704047E+00
  2.79084225E+00  1.89744262E+00  2.52304596E-02 -7.77409973E-01 -9.62555119E-01
 -7.15943285E-01 -1.52151970E-02 -2.85035688E-02 -1.35448507E+00 -9.65791424E-02
 -1.17471814E-01  1.97853526E-01 -5.21676403E-02 -6.34684021E-02  9.91446714E-02
  4.97568184E+00  5.20671901E+00  4.52327736E+00  6.43553357E-01  6.29526938E-02
  8.06878589E-02  2.85725790E+00  2.87135785E+00  2.85368225E+00  3.91769901E-02
  4.05579862E-03  4.62443708E-03  6.40317177E-01  6.39306315E-01  6.37876017E-01
 -2.77327652E-03 -1.44751978E-03 -1.71355698E-03 -4.97654619E-01 -6.39082042E-01
  1.02010363E+00 -3.04853376E-01 -3.28059454E-01  4.16800297E-01 -2.01372279E-01
 -2.44299612E-01  4.04912943E-01 -3.39719098E-02 -1.04151959E-01 -1.24896607E-01
  2.47218736E-01 -4.34283047E-02 -5.43185085E-02  1.17505599E-01 -4.67917698E-02
 -5.68325924E-02  1.19523379E-01  5.51562485E-03 -2.75479579E+00  7.39326096E+00
  1.65861393E+00 -1.56971824E+00 -1.03274413E+00 -1.33960242E-02 -9.94358099E-01
 -1.22261287E+00  2.99168348E-01 -3.76407959E-01 -4.66744291E-01  5.66574951E-02
 -3.63427324E-02 -4.46209453E-02 -1.75265439E-02 -2.87312916E-02 -3.50766741E-02
 -6.92244131E-04 -3.14943181E+00 -3.41455534E+00 -2.49000932E+00 -7.41356503E-01
  1.64489352E-01  2.07277228E-01 -1.57708845E+00 -1.59125028E+00 -1.58061581E+00
 -3.71706685E-02 -1.84375401E-02 -2.38880455E-02 -3.47620346E-01 -3.47127983E-01
 -3.43537030E-01  1.05257208E-03  3.31506737E-03  4.29956263E-03 -2.42403785E-01