Gly.e+-localize-molden.E-.fchk                                                                      
        SP                           RHF                        6-311G
Number of electrons                        I               38
Number of alpha electrons                  I               19
Number of beta electrons                   I               19
Number of atoms                            I                8
Number of basis functions                  I               74
Number of independent functions            I               74
Atomic numbers                             I   N=           8
           7           6           6           8           8           1
           1           1
Current cartesian coordinates              R   N=          24
  1.75582013E+00  1.23132665E+00  4.87473751E-01  1.69565125E-01 -8.35296742E-01
  1.55176751E+00  1.77936612E-01 -7.48520518E-01  4.45100423E+00  1.49694655E+00
  8.96315999E-01  5.43007133E+00 -1.14853774E+00 -2.35919079E+00  5.47066265E+00
  3.58004835E+00  1.01340343E+00  9.83337887E-01  9.22299733E-01 -2.61247078E+00
  8.88927170E-01 -1.72868367E+00 -6.05808401E-01  8.41778503E-01
Shell types                                I   N=          44
           0           0           1           0           1           0
           1           0           0           1           0           1
           0           1           0           0           1           0
           1           0           1           0           0           1
           0           1           0           1           0           0
           1           0           1           0           1           0
           0           0           0           0           0           0
           0           0
Shell to atom map                          I   N=          44
           1           1           1           1           1           1
           1           2           2           2           2           2
           2           2           3           3           3           3
           3           3           3           4           4           4
           4           4           4           4           5           5
           5           5           5           5           5           6
           6           6           7           7           7           8
           8           8
Coordinates of each shell                  R   N=         132
  1.75582013E+00  1.23132665E+00  4.87473751E-01  1.75582013E+00  1.23132665E+00
  4.87473751E-01  1.75582013E+00  1.23132665E+00  4.87473751E-01  1.75582013E+00
  1.23132665E+00  4.87473751E-01  1.75582013E+00  1.23132665E+00  4.87473751E-01
  1.75582013E+00  1.23132665E+00  4.87473751E-01  1.75582013E+00  1.23132665E+00
  4.87473751E-01  1.69565125E-01 -8.35296742E-01  1.55176751E+00  1.69565125E-01
 -8.35296742E-01  1.55176751E+00  1.69565125E-01 -8.35296742E-01  1.55176751E+00
  1.69565125E-01 -8.35296742E-01  1.55176751E+00  1.69565125E-01 -8.35296742E-01
  1.55176751E+00  1.69565125E-01 -8.35296742E-01  1.55176751E+00  1.69565125E-01
 -8.35296742E-01  1.55176751E+00  1.77936612E-01 -7.48520518E-01  4.45100423E+00
  1.77936612E-01 -7.48520518E-01  4.45100423E+00  1.77936612E-01 -7.48520518E-01
  4.45100423E+00  1.77936612E-01 -7.48520518E-01  4.45100423E+00  1.77936612E-01
 -7.48520518E-01  4.45100423E+00  1.77936612E-01 -7.48520518E-01  4.45100423E+00
  1.77936612E-01 -7.48520518E-01  4.45100423E+00  1.49694655E+00  8.96315999E-01
  5.43007133E+00  1.49694655E+00  8.96315999E-01  5.43007133E+00  1.49694655E+00
  8.96315999E-01  5.43007133E+00  1.49694655E+00  8.96315999E-01  5.43007133E+00
  1.49694655E+00  8.96315999E-01  5.43007133E+00  1.49694655E+00  8.96315999E-01
  5.43007133E+00  1.49694655E+00  8.96315999E-01  5.43007133E+00 -1.14853774E+00
 -2.35919079E+00  5.47066265E+00 -1.14853774E+00 -2.35919079E+00  5.47066265E+00
 -1.14853774E+00 -2.35919079E+00  5.47066265E+00 -1.14853774E+00 -2.35919079E+00
  5.47066265E+00 -1.14853774E+00 -2.35919079E+00  5.47066265E+00 -1.14853774E+00
 -2.35919079E+00  5.47066265E+00 -1.14853774E+00 -2.35919079E+00  5.47066265E+00
  3.58004835E+00  1.01340343E+00  9.83337887E-01  3.58004835E+00  1.01340343E+00
  9.83337887E-01  3.58004835E+00  1.01340343E+00  9.83337887E-01  9.22299733E-01
 -2.61247078E+00  8.88927170E-01  9.22299733E-01 -2.61247078E+00  8.88927170E-01
  9.22299733E-01 -2.61247078E+00  8.88927170E-01 -1.72868367E+00 -6.05808401E-01
  8.41778503E-01 -1.72868367E+00 -6.05808401E-01  8.41778503E-01 -1.72868367E+00
 -6.05808401E-01  8.41778503E-01
Number of primitives per shell             I   N=          44
           6           3           3           1           1           1
           1           6           3           3           1           1
           1           1           6           3           3           1
           1           1           1           6           3           3
           1           1           1           1           6           3
           3           1           1           1           1           3
           1           1           3           1           1           3
           1           1
Primitive exponents                        R   N=          95
  6.29348000E+03  9.49044000E+02  2.18776000E+02  6.36916000E+01  1.88282000E+01
  2.72023000E+00  3.06331000E+01  7.02614000E+00  2.11205000E+00  3.06331000E+01
  7.02614000E+00  2.11205000E+00  6.84009000E-01  6.84009000E-01  2.00878000E-01
  2.00878000E-01  4.56324000E+03  6.82024000E+02  1.54973000E+02  4.44553000E+01
  1.30290000E+01  1.82773000E+00  2.09642000E+01  4.80331000E+00  1.45933000E+00
  2.09642000E+01  4.80331000E+00  1.45933000E+00  4.83456000E-01  4.83456000E-01
  1.45585000E-01  1.45585000E-01  4.56324000E+03  6.82024000E+02  1.54973000E+02
  4.44553000E+01  1.30290000E+01  1.82773000E+00  2.09642000E+01  4.80331000E+00
  1.45933000E+00  2.09642000E+01  4.80331000E+00  1.45933000E+00  4.83456000E-01
  4.83456000E-01  1.45585000E-01  1.45585000E-01  8.58850000E+03  1.29723000E+03
  2.99296000E+02  8.73771000E+01  2.56789000E+01  3.74004000E+00  4.21175000E+01
  9.62837000E+00  2.85332000E+00  4.21175000E+01  9.62837000E+00  2.85332000E+00
  9.05661000E-01  9.05661000E-01  2.55611000E-01  2.55611000E-01  8.58850000E+03
  1.29723000E+03  2.99296000E+02  8.73771000E+01  2.56789000E+01  3.74004000E+00
  4.21175000E+01  9.62837000E+00  2.85332000E+00  4.21175000E+01  9.62837000E+00
  2.85332000E+00  9.05661000E-01  9.05661000E-01  2.55611000E-01  2.55611000E-01
  3.38650000E+01  5.09479000E+00  1.15879000E+00  3.25840000E-01  1.02741000E-01
  3.38650000E+01  5.09479000E+00  1.15879000E+00  3.25840000E-01  1.02741000E-01
  3.38650000E+01  5.09479000E+00  1.15879000E+00  3.25840000E-01  1.02741000E-01
Contraction coefficients                   R   N=          95
  1.96979000E-03  1.49613000E-02  7.35006000E-02  2.48937000E-01  6.02460000E-01
  2.56202000E-01  1.11906000E-01  9.21666000E-01 -2.56919000E-03  3.83119000E-02
  2.37403000E-01  8.17592000E-01  1.00000000E+00  1.00000000E+00  1.00000000E+00
  1.00000000E+00  1.96665000E-03  1.52306000E-02  7.61269000E-02  2.60801000E-01
  6.16462000E-01  2.21006000E-01  1.14660000E-01  9.19999000E-01 -3.03068000E-03
  4.02487000E-02  2.37594000E-01  8.15854000E-01  1.00000000E+00  1.00000000E+00
  1.00000000E+00  1.00000000E+00  1.96665000E-03  1.52306000E-02  7.61269000E-02
  2.60801000E-01  6.16462000E-01  2.21006000E-01  1.14660000E-01  9.19999000E-01
 -3.03068000E-03  4.02487000E-02  2.37594000E-01  8.15854000E-01  1.00000000E+00
  1.00000000E+00  1.00000000E+00  1.00000000E+00  1.89515000E-03  1.43859000E-02
  7.07320000E-02  2.40001000E-01  5.94797000E-01  2.80802000E-01  1.13889000E-01
  9.20811000E-01 -3.27447000E-03  3.65114000E-02  2.37153000E-01  8.19702000E-01
  1.00000000E+00  1.00000000E+00  1.00000000E+00  1.00000000E+00  1.89515000E-03
  1.43859000E-02  7.07320000E-02  2.40001000E-01  5.94797000E-01  2.80802000E-01
  1.13889000E-01  9.20811000E-01 -3.27447000E-03  3.65114000E-02  2.37153000E-01
  8.19702000E-01  1.00000000E+00  1.00000000E+00  1.00000000E+00  1.00000000E+00
  2.54938000E-02  1.90373000E-01  8.52161000E-01  1.00000000E+00  1.00000000E+00
  2.54938000E-02  1.90373000E-01  8.52161000E-01  1.00000000E+00  1.00000000E+00
  2.54938000E-02  1.90373000E-01  8.52161000E-01  1.00000000E+00  1.00000000E+00
Alpha Orbital Energies                     R   N=          74
 -2.03928975E+01 -2.03795193E+01 -1.56879005E+01 -1.14822558E+01 -1.14549117E+01
 -1.42102012E+00 -1.41962307E+00 -1.25181997E+00 -1.13373717E+00 -1.11616847E+00
 -1.09539199E+00 -1.03332832E+00 -9.44942562E-01 -9.23059204E-01 -9.08528971E-01
 -6.49524510E-01 -6.44724687E-01 -6.37542372E-01 -6.32019088E-01 -2.29818137E-01
 -1.56040260E-02  2.93131154E-02  4.03748608E-02  9.91846704E-02  1.48580404E-01
  2.35680960E-01  2.76777231E-01  3.27492099E-01  3.88244710E-01  3.97366667E-01
  4.34645399E-01  4.79975590E-01  5.05070297E-01  5.63736181E-01  5.97778740E-01
  6.06589621E-01  6.30316929E-01  6.61916873E-01  7.17916931E-01  7.27234837E-01
  7.50143142E-01  8.56815672E-01  9.27245709E-01  9.80867303E-01  9.90250832E-01
  1.03416966E+00  1.10568341E+00  1.10989992E+00  1.28778538E+00  1.64676879E+00
  1.80561818E+00  2.28464737E+00  2.38293415E+00  2.40544442E+00  2.76753197E+00
  2.85990909E+00  2.95834788E+00  3.00466369E+00  3.15069107E+00  3.25471402E+00
  3.84446349E+00  3.93806810E+00  4.09553191E+00  5.23844452E+00  5.27936313E+00
  5.35799714E+00  5.36396795E+00  5.39679887E+00  5.44274391E+00  2.42519597E+01
  2.44370943E+01  3.63386420E+01  5.14234043E+01  5.15183751E+01
Alpha MO coefficients                      R   N=        5476
  4.85746582E-05  6.00067378E-05  4.06343475E-05  2.90786203E-04  1.35494849E-04
 -2.37161675E-05  3.13106860E-05  4.05064407E-04  2.24565891E-04 -1.41170370E-03
  2.76005082E-04  9.67971812E-04  3.30889477E-04 -2.16398807E-04 -3.99419425E-04
 -2.25244358E-05  3.48619683E-05  2.12801727E-04  1.25534839E-03 -2.13313235E-04
 -1.21163450E-04  1.48705715E-03  3.86607701E-04  6.22256765E-04  9.22688713E-04
 -2.29553547E-03  6.71353518E-04  1.60912235E-03  2.37083449E-03  2.85289816E-03
 -1.49559715E-03 -4.30817163E-03  2.11385219E-03  2.55479400E-03 -1.07264405E-04
  8.48912230E-03 -1.03354613E-03 -1.41374974E-03 -2.66912312E-04  6.29432973E-06
 -1.33674732E-05  6.27763850E-05  7.38570926E-05 -3.31721351E-04  7.76181753E-05
  2.72294199E-04  3.25878456E-04 -2.68122950E-04 -1.64921580E-03  5.91823517E-04
  7.76428500E-04 -2.29314776E-05  5.61649614E-01  4.91837256E-01  5.85572154E-03
  7.16615558E-03 -6.31527750E-04 -6.08593051E-02  4.86320534E-03  5.97824250E-03
  2.50131865E-03 -6.27860209E-02  7.21407652E-03  8.83943346E-03  9.92172607E-04
  2.20548648E-05  1.00342924E-04  2.38873665E-04  1.10720404E-04  4.78415284E-04
 -1.19728904E-03  1.37682548E-04  4.10877052E-04 -1.24703245E-03 -1.33752239E-04
 -2.44973407E-04  2.44545720E-04 -4.82212113E-04 -3.86929246E-04  1.12489702E-03
  2.83559472E-04 -7.62476389E-04 -4.74221552E-04 -5.34767019E-04  8.28810780E-04
 -5.24159040E-04 -2.11615919E-03 -2.01343213E-04 -3.74683598E-04  6.87864009E-05
  1.15100654E-04  3.63923637E-04  1.18194211E-03  5.77283430E-04  7.73681434E-04
  1.35337965E-03  6.45114283E-04  3.06848034E-04  2.36220215E-04 -4.65364618E-04
  6.35389541E-04  1.55834839E-03 -2.47294685E-03 -3.02265961E-03 -1.62282288E-03
 -3.72496481E-03 -1.84891442E-03 -2.19553041E-03 -2.44300493E-04  7.83697188E-03
  1.04208142E-03  1.35777263E-03  1.39455735E-04  5.61773055E-01  4.92135993E-01
 -5.82360726E-03 -7.02170448E-03 -1.51455236E-04 -6.19939405E-02 -4.84794324E-03
 -5.59110305E-03  3.40972408E-03 -6.42515791E-02 -6.75326304E-03 -7.87302944E-03
  3.00333297E-03  1.54071771E-06 -1.70585034E-05 -6.18882750E-05 -9.31008917E-05
 -2.04691222E-04  5.92630715E-05 -2.23838135E-04 -2.97445932E-04 -5.38665614E-05
 -1.47624423E-03 -5.67506286E-04 -7.31068886E-04  6.05199210E-05  1.26907081E-04
  7.82541955E-04 -1.99711248E-03 -1.17254687E-04 -4.28247078E-04 -2.96988895E-04
 -5.77378230E-05 -1.39186289E-05 -4.64843222E-04 -5.68486257E-01 -4.90598965E-01
 -5.59128458E-03  1.47186962E-02 -1.02018496E-02  7.34982007E-02 -5.11167418E-03
  1.74284947E-02 -1.16519115E-02  6.49379722E-02 -7.13222195E-03  1.65445459E-02
 -1.19956825E-02 -5.01848389E-04 -1.24798964E-03  1.06864926E-03  1.07017224E-03
 -4.65442602E-04  4.36848678E-03  1.60941272E-03  2.29360479E-03 -9.04203194E-04
 -5.62297305E-03 -4.27983159E-03 -1.62814472E-03  2.64078361E-04 -1.44856408E-04
 -2.38248433E-04  1.08386616E-04 -1.12675596E-04 -3.71600826E-04  6.11131399E-04
  1.91317133E-04 -3.39817138E-04 -1.00568966E-03  3.94049948E-03  8.07569015E-04
 -1.35836370E-03 -1.34028065E-03  5.93490261E-05  1.04980049E-04  1.66111607E-05
 -7.89012250E-05  4.01006765E-04 -3.46017887E-04  1.23162496E-04 -1.32562348E-04
  4.72760089E-04 -1.69042469E-04 -2.91683111E-04  1.27803645E-04  8.26056569E-04
  2.50364597E-05  1.59946999E-05 -9.19488520E-05  3.96427473E-05  3.69308120E-04
  1.94954356E-04 -1.23376041E-04 -3.33810560E-05  5.00557914E-04 -1.57294628E-03
 -6.36214649E-04  1.41712508E-04  1.41423125E-03  5.95017677E-03  7.12840509E-04
 -2.60302050E-03  6.04067211E-04  3.13471342E-03  1.21691234E-03 -8.40554491E-04
 -3.83829550E-03 -2.20817681E-03 -1.47647630E-04 -1.76347003E-04  7.59148620E-05
 -3.52449857E-04 -6.94363703E-04  1.30268650E-04  1.96348095E-04 -6.75819033E-04
 -1.34312733E-03  2.66684872E-03 -5.85896467E-04 -1.48673528E-03  3.45751411E-04
  1.56320569E-03  2.91445176E-03 -2.87713472E-04 -3.87374733E-04 -4.61923819E-03
 -8.54435681E-03 -7.22652862E-04 -9.64503718E-04 -8.20778238E-03 -5.19394372E-03
 -1.04584028E-03 -1.21796447E-03 -2.45900642E-03  5.69370525E-01  4.77919329E-01
  3.77523173E-06  3.33123396E-05 -7.15194974E-04 -3.15090311E-02 -5.76788296E-05
  6.54439559E-06  1.19149775E-03 -6.43661522E-03 -7.36066695E-04 -5.69739944E-04
  4.88503658E-03  1.93473025E-03  3.43736029E-03  3.37257477E-03  4.13560900E-03
  2.69007517E-03 -1.02561225E-02  5.33584307E-03  6.55618933E-03  4.45984972E-03
 -4.21943482E-03  3.63909062E-03  4.35727085E-03  1.68275962E-03  1.91550732E-03
  3.35334584E-03 -3.59051477E-03 -4.28335277E-03  2.83093646E-03 -9.75946260E-03
 -5.69927482E-03 -6.78272948E-03  4.73760057E-03 -5.28612302E-03 -4.07917402E-03
 -4.93760818E-03  2.20071763E-03  1.42454096E-04 -1.47811097E-04  9.08609114E-04
 -1.41317568E-05  7.46526212E-04  9.04907367E-04  7.75463096E-05  7.75791198E-04
  9.76654977E-04 -1.28107279E-03 -2.31658285E-03 -1.81438212E-03 -4.46833965E-03
  7.20449351E-04  7.06994695E-03 -2.99384408E-03 -7.54129079E-03  1.13449701E-03
  2.48498710E-03 -4.01610921E-04 -4.81520464E-03  6.95625245E-04 -5.66834180E-01
 -4.73084119E-01 -1.43627217E-03 -1.57642700E-03 -3.55789865E-03  1.40900908E-02
 -5.93560198E-05 -5.76394590E-04 -8.86078699E-03  1.24285358E-02 -7.06639468E-04
 -2.10176962E-03 -5.09196495E-03 -6.17702573E-04 -1.05319696E-03  1.57234297E-05
  6.33251214E-05  3.61411885E-04  3.10918427E-03 -2.09478341E-04 -1.57869326E-04
  1.91343931E-04 -2.64147213E-03 -1.04916103E-03 -6.43854723E-04 -1.14367356E-03
 -1.25644855E-05 -2.98502863E-05  9.04308959E-06 -2.32531696E-04 -2.86463372E-03
 -7.22198653E-05 -1.63065099E-04 -5.23911190E-04 -4.60761105E-03  1.97953617E-03
 -7.29525297E-05 -7.44806422E-04 -4.58262795E-03  1.49666936E-05 -1.91448755E-05
  1.84579820E-05  7.88014435E-05 -2.72613208E-03  1.82156332E-04  5.33565651E-05
  1.70455703E-04 -4.26257652E-03  9.90882985E-06  1.19956214E-04  1.38358413E-04
 -4.06796854E-03  2.95110879E-04 -9.51318258E-04  8.46911114E-05  4.51421656E-03
  4.20568108E-03 -4.67224732E-04  4.54704631E-03  5.04859191E-03 -9.34392333E-06
  5.06360618E-04  9.26249803E-04 -6.44598744E-04  2.76381001E-03  4.26225189E-03
 -3.78416131E-03 -5.89181999E-04  5.56633452E-03  6.24800717E-03 -2.71734477E-03
  1.07968736E-03  6.23638653E-03  6.72332087E-03  4.04548585E-04  1.73459601E-03
  1.51414494E-03  2.23745933E-03 -1.03109489E-03 -9.67621273E-03  3.72665023E-03
  5.39699468E-03 -6.52274547E-03  4.52320488E-02  1.01306632E-03  3.93833221E-03
  3.74662215E-02  7.18271006E-03  1.06194764E-02  2.63027427E-03  2.36772896E-03
  4.94021883E-03 -4.25556574E-02  2.54619157E-02  2.94973640E-02 -7.26206834E-03
 -9.47207826E-02  1.93389616E-02  2.23542829E-02  3.47922749E-02  2.68630252E-04
  1.32960570E-04  3.08664842E-03  3.75063141E-03 -1.26279109E-02  2.06288647E-03
  6.06703061E-03  7.31156136E-03 -1.85654945E-02 -1.22505725E-02  7.40495274E-03
  9.76398496E-03 -2.03601790E-02 -5.40398788E-02 -1.41149906E-01 -5.38057977E-02
 -6.62456033E-02  5.82239238E-02  5.52130238E-01 -6.77255989E-02 -8.37691887E-02
  7.84643917E-02  5.58358146E-01 -7.04262150E-02 -8.70476240E-02  7.44620624E-02
 -2.49184033E-04 -1.94033641E-03 -1.70900952E-03 -9.51061136E-05 -1.71284887E-03
  1.10864297E-02 -4.87116522E-05 -2.71430010E-03  1.09296806E-02  6.95988353E-05
  2.77675011E-04 -2.98279892E-03  1.99142315E-03  4.03947641E-03 -2.99021403E-03
 -3.99549075E-03  2.15183909E-03  6.10891285E-03  1.00547449E-02 -9.29268657E-03
  1.27775184E-03  1.52298011E-02  1.88916077E-04  1.40375522E-03 -5.93724394E-04
 -2.71709594E-03 -3.08429447E-03 -7.98453493E-03 -3.59316110E-03 -8.20512792E-03
 -7.17038005E-03  4.22932047E-02 -4.42255881E-03 -6.05445433E-03  3.11557629E-02
  7.90918647E-03  1.14850157E-02 -2.37685932E-03 -1.53019784E-03  8.15327152E-03
 -4.64103228E-02 -2.98884404E-02 -3.45224707E-02 -1.57276533E-03 -9.46259236E-02
 -2.36838045E-02 -2.58530069E-02  3.91884533E-02 -5.41674808E-02 -1.41916753E-01
  4.90293529E-02  6.31444661E-02  6.21585072E-02  5.56653707E-01  6.06618603E-02
  7.86230243E-02  8.49528281E-02  5.65423156E-01  5.89770268E-02  7.55808755E-02
  6.74367264E-02  8.47329771E-05 -3.53584335E-04 -3.85262023E-03 -4.44299026E-03
 -1.42562267E-02  4.98766279E-03 -8.07081835E-03 -9.23533374E-03 -2.09971981E-02
 -2.01927284E-02 -1.07224363E-02 -1.34891687E-02 -2.17131381E-02 -1.18626268E-03
 -6.66719365E-03  1.43274997E-02  1.78291051E-03  1.28122434E-03 -3.79281747E-04
 -3.56641054E-04 -4.92197287E-03  4.01636437E-04 -3.04129325E-02 -1.11834420E-01
 -6.87677360E-02  1.36632744E-01 -9.73509692E-02  5.08935737E-01 -1.03238089E-01
  2.06420675E-01 -1.47099200E-01  4.49942290E-01 -8.38336152E-02  1.78799908E-01
 -1.28488029E-01  5.91733385E-03  8.54547581E-03  9.83807073E-04 -9.05925101E-04
  1.39149393E-03 -1.89631005E-02  2.51304229E-03  4.52978330E-03 -8.00577145E-04
 -6.50934341E-02 -3.61320329E-02 -7.75394583E-03 -7.00668697E-03 -9.86958362E-04
 -1.29033243E-03  6.47589132E-04 -1.60072739E-03 -1.92994456E-03  1.36544094E-03
  5.01487681E-04 -5.69102970E-03 -7.93255991E-03  4.25545958E-02  7.13770038E-03
 -1.43480427E-02 -2.05248215E-02  3.90359947E-05  1.87478349E-04  5.58653356E-04
  5.65630039E-05  1.00781272E-03 -1.51158026E-03  1.21344894E-03 -1.13525864E-03
  3.88012207E-04  5.69702620E-03 -3.39812813E-03  1.96134768E-03  1.42170528E-03
  9.59138957E-05 -3.18354500E-05 -1.81759876E-03 -1.00244412E-03 -2.22849329E-03
  1.69002855E-03 -2.80595170E-03 -2.47299661E-03 -3.93942941E-03 -1.21823826E-02
 -7.26643730E-03 -5.35079410E-04  3.67566449E-03  1.12028015E-03 -4.37225530E-02
 -1.80090687E-02  3.88476540E-04  2.66038881E-02  1.46461352E-02 -1.47833317E-02
 -4.63215149E-02 -2.03733126E-02 -1.24552447E-03 -2.01389216E-03 -1.32499207E-03
 -1.08418870E-02 -6.86797969E-03  6.79523676E-03 -2.46654794E-03 -1.86941961E-02
 -1.08667988E-02  1.80497569E-02 -1.04945485E-02 -2.52565863E-02 -1.22817143E-02
  7.82388318E-03  1.06561585E-02 -3.53567733E-03 -3.97935977E-03 -9.94047171E-03
 -1.90109439E-02 -5.61912571E-03 -6.85846183E-03 -2.86106504E-02 -1.24781503E-01
 -1.39727617E-02 -2.46590053E-02 -6.07022134E-02 -4.39430307E-02 -9.41455561E-02
 -9.71421265E-02 -1.13537105E-01  6.25919911E-02  3.31383773E-01 -1.63290203E-01
 -1.91072329E-01  8.94264246E-02  7.09506008E-02  2.02659477E-02  3.22225113E-02
 -7.43888386E-02  3.20105363E-03  5.74182939E-03  1.21599884E-02  1.44119741E-02
 -8.58656412E-03 -1.74531819E-02  1.51060611E-02  1.82121323E-02 -1.99519385E-02
 -1.69038850E-03  1.42374294E-02  1.28725887E-02 -2.61936335E-02 -1.77592937E-02
 -4.19132852E-02  1.10837560E-01  1.41090506E-01 -1.11945234E-01  1.49187642E-01
  1.74427374E-01  2.22141163E-01 -1.76322565E-01  2.79916240E-02  1.18986598E-01
  1.54428875E-01 -1.29082472E-01  3.07848072E-04  3.76647700E-03  6.21789111E-03
 -3.80401635E-03 -1.97143208E-03 -4.11246245E-03 -2.86199783E-03  3.06202394E-03
 -2.61562625E-03 -7.97896366E-04 -1.24898907E-03 -4.38678506E-03  5.76828411E-03
  1.67571642E-02  3.68102219E-03 -6.50515113E-03  7.64517833E-03  2.84082337E-02
  4.84310750E-03 -1.32780232E-02  1.29175946E-02  2.46898846E-02 -7.07479562E-03
 -9.23007027E-03  1.39683633E-03  1.42558446E-04  1.46877163E-02  1.68864670E-02
  4.93096009E-03  3.24744808E-03  3.43142833E-02  1.10736545E-01 -9.81193813E-03
 -1.06873620E-02  8.10034513E-02  4.51374813E-02  9.62477720E-02 -9.42731548E-02
 -1.16943058E-01 -6.31595843E-02 -3.40662461E-01 -1.61044389E-01 -1.98892737E-01
 -9.13183545E-02 -9.03784976E-02  2.80832031E-02  3.64418920E-02  7.73327894E-02
  1.61372324E-02  3.88942590E-02  1.15392345E-01  1.46587447E-01  1.00776277E-01
 -1.38959745E-01  1.81976216E-01  2.30950955E-01  1.60610856E-01 -1.95957252E-02
  1.22093021E-01  1.57674605E-01  1.04320183E-01 -3.37216687E-03 -5.70540934E-03
  1.18052120E-02  1.45854197E-02  7.16067366E-03  1.60998213E-02  1.51250498E-02
  1.90985340E-02  1.77845058E-02  9.88882434E-03  1.36854138E-02  1.63274337E-02
  2.31153666E-02 -3.00344865E-05 -3.71587182E-03  1.23791026E-02 -1.43949547E-03
 -1.97642093E-03 -8.94444812E-03 -4.39504286E-03 -1.13404965E-02 -8.67656300E-03
  2.86232590E-02  6.29124907E-02 -2.00329870E-01  4.44405208E-02 -6.39249818E-02
 -2.16296728E-01 -3.45771488E-01  7.31066327E-02 -1.08598402E-01 -1.22648379E-01
 -1.60334132E-01  8.47887143E-02 -7.64204410E-02 -6.65974198E-03 -1.06975850E-02
  1.11732967E-02  8.92978008E-03 -4.32028444E-03  2.77459206E-02  2.89447884E-02
  2.86282306E-02 -1.38706116E-02  7.92918310E-02  1.44906035E-02  2.75948207E-02
 -2.01501502E-02 -1.20038038E-03 -2.14934247E-03  2.05030319E-03 -1.00304371E-03
 -3.78916422E-03  5.39417179E-03  5.01648845E-03 -3.82973263E-03 -8.46017015E-03
  5.72621148E-03  3.96263260E-03 -8.09407647E-03 -4.18150599E-03 -3.57851027E-04
 -4.19308954E-04  3.04289135E-03  9.53955172E-04 -1.90861127E-03  1.76984653E-05
  5.43568140E-03  6.32109051E-04 -1.69407449E-03  5.44128076E-03  1.62789823E-03
  3.57198780E-03 -4.98296153E-03 -1.32034312E-04 -2.15614417E-04 -3.17746176E-04
  1.43272183E-03  1.57528553E-03  7.03297644E-04 -1.64499941E-04  2.49942346E-03
  2.53855291E-03  8.46151554E-04 -2.14412204E-03  4.20960386E-03  3.22045939E-03
 -2.01374934E-01 -2.42938061E-01 -4.82996688E-03  7.10838233E-03  1.43580808E-02
  5.62154183E-05 -1.18716851E-02 -5.05797223E-02 -2.46266056E-02 -3.32169245E-02
 -6.56580619E-02 -9.37444283E-02 -1.76263010E-01  8.48570635E-02  2.11068116E-01
 -1.60075163E-01 -3.02239220E-01  1.45936036E-01  1.71943492E-01 -8.33816944E-02
 -2.24812047E-01  1.12804991E-01 -1.69800356E-02 -4.12526003E-02  7.49761576E-02
  9.76317278E-02 -5.24762648E-02  1.39733969E-01  1.39957938E-01  1.82202296E-01
 -1.01379452E-01  1.11621497E-02  3.73572036E-02  9.18519108E-03  7.83664197E-04
  6.31769343E-03  1.08146459E-02 -7.26141403E-04  5.33299942E-04  1.98556127E-02
 -2.66449993E-02 -1.52551236E-03  2.48172455E-03  3.82836972E-02 -7.23327383E-02
 -1.37681167E-02 -6.17355804E-05  2.93754020E-02  1.73024371E-04  4.61539166E-04
 -9.15942483E-04 -1.66193625E-03  3.13823758E-03 -2.68038731E-03 -6.97442999E-04
 -2.35593697E-04  4.68976251E-03  1.12025267E-02 -1.13904843E-03 -8.15040192E-03
 -2.68785416E-04 -2.04150898E-03 -3.50315546E-03  1.91567766E-03  1.40558997E-03
 -1.23682763E-02  1.21929704E-02  3.98353671E-03  4.06442895E-03 -1.88591304E-02
  1.22511949E-02  4.17569652E-03 -7.43574993E-04 -2.85710477E-02 -1.35076957E-02
 -6.34786430E-02 -1.81104162E-02 -1.91076573E-02 -6.01877389E-02 -2.73565137E-02
 -1.46189020E-02 -2.41381452E-02 -5.59494380E-03  1.99162117E-03  2.59509799E-04
 -6.18257437E-03  2.91568754E-02  3.89777940E-02  1.26505035E-02 -1.05649483E-02
  4.96882362E-02  7.03411830E-02 -6.94711043E-02  1.21486555E-02  8.13138785E-02
  2.02510559E-02 -5.74408108E-02 -1.00343250E-01  1.49564742E-02  1.60285170E-02
  1.57513104E-01  2.73163974E-01  3.41981399E-02  3.92710676E-02  3.00517087E-01
  3.80705264E-01  3.45826411E-02  4.76876390E-02  2.13068775E-01 -2.56657442E-02
 -6.17156763E-02  2.82205115E-03 -2.79915223E-03 -1.38573710E-01  2.23464144E-01
  6.27463115E-03 -2.09464037E-03 -2.32791554E-01  2.42020332E-02  2.32382879E-02
  1.60482220E-02  2.32956434E-02  5.86061212E-03  8.64729229E-03  5.96976370E-03
  8.33669678E-03  3.47673710E-02 -2.01681811E-02  1.26941986E-02  1.65263144E-02
  5.74754022E-02 -7.35273995E-02  6.88520415E-03  1.50609107E-02  8.99600984E-02
  5.25037026E-03  8.82583697E-03 -7.48656119E-03 -8.19649473E-03  3.08148834E-02
 -2.75007842E-02 -1.32568400E-02 -1.52830718E-02  4.77721341E-02 -3.24850769E-02
 -9.30903663E-03 -5.69569812E-03  7.80453428E-02 -3.19884278E-03 -3.51984216E-03
 -2.22178913E-02  9.07419704E-04 -2.40937404E-02 -3.05792089E-02 -7.10480943E-03
 -4.20717748E-02 -3.36533110E-02  3.74186737E-03  3.57687439E-03  6.70748475E-03
 -7.93941844E-03 -3.37712471E-02 -1.99857401E-03  1.41093006E-02 -1.38639091E-02
 -6.03068142E-02 -6.80494505E-02  2.61670089E-02  3.13158269E-02 -5.95291264E-02
 -3.86997323E-02 -7.94133411E-02  7.16985557E-02 -1.40006359E-01 -5.33215204E-02
  2.36217003E-01  1.27901167E-01 -2.48826121E-01 -9.72028303E-02  2.65094521E-01
  1.33873316E-01 -1.06449325E-01 -6.93686472E-02  4.08118357E-03  6.75082409E-03
  7.59686618E-03 -7.00093611E-03  6.73626420E-03 -1.77542885E-02  1.20186527E-02
 -1.61164293E-02  1.43478431E-02 -3.79714567E-02 -3.84866597E-02 -1.41066482E-02
  3.00362173E-02 -9.41061531E-04 -9.76947875E-04 -4.46584191E-03  5.00634597E-03
  7.12875460E-04  9.48722810E-04 -8.02641692E-03  6.41467234E-03  7.77894664E-04
  2.44956080E-02 -9.50999821E-03  8.62489395E-03 -7.99658469E-03  3.36304273E-04
  1.22426470E-04 -3.82495747E-03  5.21025937E-03  1.11453214E-02  3.18791010E-03
 -7.90702541E-03  7.10290522E-03  1.89864276E-02 -2.29420604E-02 -8.88276198E-03
  5.56326272E-03  1.71880750E-02 -5.50851240E-03 -2.05443941E-02 -3.24863513E-03
  1.92984109E-01  2.44560375E-01  3.12698272E-02 -1.01725977E-02 -3.77125565E-02
 -1.17864035E-02 -4.89581881E-03 -5.63593009E-03 -4.24054049E-03 -7.07488376E-04
  3.21166802E-03  4.74076774E-03 -3.86184884E-03 -5.03694262E-03  8.82079462E-03
  9.28480854E-02 -4.02096770E-02 -1.26351794E-02  4.97625236E-03  4.20546539E-02
  8.54135324E-02  1.55890854E-01 -2.79345063E-02  6.36945801E-02 -2.59069536E-01
  2.71242518E-01 -5.32088644E-02  1.15024772E-01 -2.65054227E-01  1.64947859E-01
 -5.83369292E-02  7.17342869E-02 -5.33145624E-03 -9.00714053E-03  9.08364491E-03
 -6.07668729E-03 -1.07889981E-02  2.59407424E-02  1.84073326E-02 -8.93701584E-03
 -2.36891179E-02  4.54920944E-02 -1.06854946E-02  9.24302726E-03 -3.20618754E-02
  8.41721336E-04  1.21593384E-03 -3.50649141E-03  4.13819051E-03 -2.07746140E-03
 -4.00237279E-03 -4.29687548E-03  7.38949707E-03 -3.83173413E-03 -8.23098944E-03
 -8.92576843E-03  8.28529097E-03  5.47695526E-03 -4.33135003E-04 -6.73217075E-04
 -6.66008854E-03  3.17001959E-03 -9.12515168E-03  1.32197489E-03 -9.49664871E-03
  6.81967611E-03 -1.52213591E-02  5.32484518E-03 -1.13555174E-02  7.79381651E-03
 -1.20681916E-02 -1.09068656E-02 -3.40655628E-02 -1.33334880E-02  5.89528254E-03
  3.80215537E-02  1.87123823E-02 -1.95741604E-01 -2.43244442E-01 -2.09697357E-02
  3.54138070E-03  6.67550679E-03 -3.46437057E-03  5.53337592E-03  2.13110090E-04
 -3.13926726E-02 -3.62809643E-03  1.04380962E-02 -5.38343492E-03  2.47884463E-02
 -1.52951862E-02 -5.48621965E-03  3.34655301E-02  8.43025910E-03  1.11410046E-02
 -1.43786770E-03 -2.22191864E-03 -1.49117740E-02 -1.61931686E-02 -1.00274689E-02
 -1.33711294E-02 -5.80539793E-02 -2.25498789E-01 -2.20757905E-02 -2.75938098E-02
 -9.63000865E-02  3.19234768E-03  7.03926503E-03  2.09350490E-03  3.07126708E-03
 -3.85418057E-02 -4.23150427E-02  2.02413210E-02  2.54865043E-02 -9.27001409E-02
  2.91237940E-02  8.39959486E-02  1.01361963E-01 -1.49053315E-01  5.71899151E-03
 -6.78879117E-05  8.56025263E-02  1.01892739E-01 -2.47649212E-01  2.54730215E-02
  1.33994391E-01  1.59702060E-01 -3.83608725E-01  1.89441762E-02  1.23630049E-01
  1.46324303E-01 -3.73559191E-01 -4.27673034E-03 -3.83275812E-03  1.09524707E-02
  1.30863222E-02  1.31785935E-03 -9.56210769E-03  2.85688997E-02  3.45149916E-02
 -6.23982302E-03  1.77388744E-01  5.84352044E-02  7.01485974E-02 -8.71314043E-03
 -1.89503928E-03 -1.55185527E-02  4.00401970E-02  4.74774911E-03  2.47414703E-02
  1.53473982E-02  4.14067185E-03  1.96826145E-02  1.79640299E-02 -1.81541051E-03
 -1.63389889E-03  1.34628652E-03 -2.32520786E-02 -2.14822800E-02 -5.49802507E-03
  3.27681170E-03 -3.74026856E-02 -3.54571016E-02  8.36041844E-02 -1.38058560E-02
 -7.26670991E-02 -1.98199275E-02  9.18004688E-03  1.22155784E-02 -5.66964042E-03
 -4.13686286E-03 -3.61849203E-03 -1.63349229E-02 -8.51936522E-03 -7.99200503E-03
 -4.04837987E-02 -2.34008339E-01 -3.54799304E-02 -4.19669445E-02 -6.01856710E-02
  1.39813296E-03  4.22971188E-03  6.82382269E-03 -5.57461939E-03 -5.31282015E-02
 -2.80817114E-02 -7.02335446E-03 -3.45137012E-02 -1.16017799E-01  2.78371719E-02
 -7.20378583E-02 -1.01223310E-01 -1.38544774E-01 -4.47705132E-03 -4.14059210E-03
 -1.23829163E-02 -8.98173437E-03  3.22391673E-03 -8.00765954E-03 -3.01019995E-02
 -2.84195509E-02 -3.81535337E-03  1.72552697E-01 -6.40059160E-02 -6.20557006E-02
 -2.46054496E-03  6.69750035E-03  3.74568159E-03 -6.98190650E-02 -1.31311043E-01
 -2.31882086E-01  1.23009322E-02 -1.10602835E-01 -2.05961188E-01 -3.59018826E-01
 -6.73077393E-03 -9.75511186E-02 -1.93121847E-01 -3.51778539E-01 -1.12418920E-03