 Molden2AIM, Version 3.1.0 (02/25/2015)           Time: Wed May 25 17:47:09 2016
GAUSSIAN            140 MOL ORBITALS    166 PRIMITIVES        3 NUCLEI
  H    1    (CENTRE  1)   0.00000000  0.00000000 -0.12580851  CHARGE =  1.0
  H    2    (CENTRE  2)   0.00000000  1.42518410  0.99849531  CHARGE =  1.0
  H    3    (CENTRE  3)   0.00000000 -1.42518221  0.99849720  CHARGE =  1.0
CENTRE ASSIGNMENTS    1  1  1  1  1  1  1  1  1  1  1  1  1  1  1  1  1  1  1  1
CENTRE ASSIGNMENTS    1  1  1  1  1  1  1  1  1  1  1  1  1  1  1  1  1  1  1  1
CENTRE ASSIGNMENTS    1  1  1  1  1  1  1  1  1  1  1  1  1  1  1  1  1  1  1  1
CENTRE ASSIGNMENTS    1  1  1  1  1  1  1  1  1  1  1  1  1  1  1  1  1  1  1  1
CENTRE ASSIGNMENTS    1  1  1  1  1  1  1  1  1  1  1  1  2  2  2  2  2  2  2  2
CENTRE ASSIGNMENTS    2  2  2  2  2  2  2  2  2  2  2  2  2  2  2  2  2  2  2  2
CENTRE ASSIGNMENTS    2  2  2  2  2  2  2  2  2  3  3  3  3  3  3  3  3  3  3  3
CENTRE ASSIGNMENTS    3  3  3  3  3  3  3  3  3  3  3  3  3  3  3  3  3  3  3  3
CENTRE ASSIGNMENTS    3  3  3  3  3  3
TYPE ASSIGNMENTS      1  1  1  1  1  1  1  1  1  1  1  1  1  1  1  1  1  1  1  1
TYPE ASSIGNMENTS      1  2  2  2  3  3  3  4  4  4  2  3  4  2  3  4  2  3  4  5
TYPE ASSIGNMENTS      6  7  8  9 10  5  6  7  8  9 10  5  6  7  8  9 10 11 12 13
TYPE ASSIGNMENTS     17 14 15 18 19 16 20 11 12 13 17 14 15 18 19 16 20 21 22 23
TYPE ASSIGNMENTS     24 25 26 27 28 29 30 31 32 33 34 35  1  1  1  1  1  1  2  3
TYPE ASSIGNMENTS      4  2  3  4  2  3  4  5  6  7  8  9 10  5  6  7  8  9 10 11
TYPE ASSIGNMENTS     12 13 17 14 15 18 19 16 20  1  1  1  1  1  1  2  3  4  2  3
TYPE ASSIGNMENTS      4  2  3  4  5  6  7  8  9 10  5  6  7  8  9 10 11 12 13 17
TYPE ASSIGNMENTS     14 15 18 19 16 20
EXPONENTS  0.6142000D+05 0.9199000D+04 0.2091000D+04 0.5909000D+03 0.1923000D+03
EXPONENTS  0.6932000D+02 0.2697000D+02 0.1110000D+02 0.4682000D+01 0.6142000D+05
EXPONENTS  0.9199000D+04 0.2091000D+04 0.5909000D+03 0.1923000D+03 0.6932000D+02
EXPONENTS  0.2697000D+02 0.1110000D+02 0.4682000D+01 0.1428000D+01 0.5547000D+00
EXPONENTS  0.2067000D+00 0.6342000D+02 0.1466000D+02 0.4459000D+01 0.6342000D+02
EXPONENTS  0.1466000D+02 0.4459000D+01 0.6342000D+02 0.1466000D+02 0.4459000D+01
EXPONENTS  0.1531000D+01 0.1531000D+01 0.1531000D+01 0.5302000D+00 0.5302000D+00
EXPONENTS  0.5302000D+00 0.1750000D+00 0.1750000D+00 0.1750000D+00 0.3775000D+01
EXPONENTS  0.3775000D+01 0.3775000D+01 0.3775000D+01 0.3775000D+01 0.3775000D+01
EXPONENTS  0.1300000D+01 0.1300000D+01 0.1300000D+01 0.1300000D+01 0.1300000D+01
EXPONENTS  0.1300000D+01 0.4440000D+00 0.4440000D+00 0.4440000D+00 0.4440000D+00
EXPONENTS  0.4440000D+00 0.4440000D+00 0.2666000D+01 0.2666000D+01 0.2666000D+01
EXPONENTS  0.2666000D+01 0.2666000D+01 0.2666000D+01 0.2666000D+01 0.2666000D+01
EXPONENTS  0.2666000D+01 0.2666000D+01 0.8590000D+00 0.8590000D+00 0.8590000D+00
EXPONENTS  0.8590000D+00 0.8590000D+00 0.8590000D+00 0.8590000D+00 0.8590000D+00
EXPONENTS  0.8590000D+00 0.8590000D+00 0.1846000D+01 0.1846000D+01 0.1846000D+01
EXPONENTS  0.1846000D+01 0.1846000D+01 0.1846000D+01 0.1846000D+01 0.1846000D+01
EXPONENTS  0.1846000D+01 0.1846000D+01 0.1846000D+01 0.1846000D+01 0.1846000D+01
EXPONENTS  0.1846000D+01 0.1846000D+01 0.8264000D+02 0.1241000D+02 0.2824000D+01
EXPONENTS  0.7977000D+00 0.2581000D+00 0.8989000D-01 0.2292000D+01 0.2292000D+01
EXPONENTS  0.2292000D+01 0.8380000D+00 0.8380000D+00 0.8380000D+00 0.2920000D+00
EXPONENTS  0.2920000D+00 0.2920000D+00 0.2062000D+01 0.2062000D+01 0.2062000D+01
EXPONENTS  0.2062000D+01 0.2062000D+01 0.2062000D+01 0.6620000D+00 0.6620000D+00
EXPONENTS  0.6620000D+00 0.6620000D+00 0.6620000D+00 0.6620000D+00 0.1397000D+01
EXPONENTS  0.1397000D+01 0.1397000D+01 0.1397000D+01 0.1397000D+01 0.1397000D+01
EXPONENTS  0.1397000D+01 0.1397000D+01 0.1397000D+01 0.1397000D+01 0.8264000D+02
EXPONENTS  0.1241000D+02 0.2824000D+01 0.7977000D+00 0.2581000D+00 0.8989000D-01
EXPONENTS  0.2292000D+01 0.2292000D+01 0.2292000D+01 0.8380000D+00 0.8380000D+00
EXPONENTS  0.8380000D+00 0.2920000D+00 0.2920000D+00 0.2920000D+00 0.2062000D+01
EXPONENTS  0.2062000D+01 0.2062000D+01 0.2062000D+01 0.2062000D+01 0.2062000D+01
EXPONENTS  0.6620000D+00 0.6620000D+00 0.6620000D+00 0.6620000D+00 0.6620000D+00
EXPONENTS  0.6620000D+00 0.1397000D+01 0.1397000D+01 0.1397000D+01 0.1397000D+01
EXPONENTS  0.1397000D+01 0.1397000D+01 0.1397000D+01 0.1397000D+01 0.1397000D+01
EXPONENTS  0.1397000D+01
MO    1     MO 0.0        OCC NO =    2.0000000  ORB. ENERGY =  -20.561800
 -0.25078875D+00 -0.46826756D+00 -0.80919684D+00 -0.13026455D+01 -0.19334793D+01
 -0.25037727D+01 -0.25802450D+01 -0.17308621D+01 -0.49326063D+00  0.49939066D-03
  0.95582999D-03  0.16405827D-02  0.26907487D-02  0.40174753D-02  0.55752168D-02
  0.62860091D-02  0.59193083D-02  0.23493498D-02 -0.19393954D-01  0.13541231D-02
  0.35175585D-04  0.00000000D+00  0.00000000D+00  0.00000000D+00 -0.00000000D+00
 -0.00000000D+00 -0.00000000D+00 -0.17765937D-01 -0.19693106D-01 -0.17149014D-01
  0.00000000D+00  0.00000000D+00  0.75301022D-02 -0.00000000D+00 -0.00000000D+00
 -0.20443206D-03  0.00000000D+00 -0.00000000D+00 -0.69375497D-05  0.26923661D-01
  0.14875323D-01  0.19772063D-01 -0.00000000D+00  0.00000000D+00  0.00000000D+00
 -0.95109118D-02 -0.11722570D-02 -0.46760029D-02  0.00000000D+00 -0.00000000D+00
 -0.00000000D+00 -0.14945743D-03 -0.11129808D-03 -0.25042069D-03  0.00000000D+00
 -0.00000000D+00 -0.00000000D+00  0.00000000D+00 -0.00000000D+00 -0.14867726D-01
  0.00000000D+00 -0.00000000D+00 -0.15636029D-01  0.00000000D+00 -0.00000000D+00
 -0.15187577D-01 -0.00000000D+00  0.00000000D+00  0.00000000D+00  0.11503547D-04
  0.00000000D+00  0.00000000D+00  0.74829708D-04  0.00000000D+00 -0.00000000D+00
  0.42325553D-03  0.00000000D+00  0.15669194D-01 -0.00000000D+00  0.00000000D+00
  0.16811532D-01  0.00000000D+00  0.20196084D-01 -0.00000000D+00 -0.00000000D+00
 -0.00000000D+00  0.00000000D+00  0.21724108D-01  0.00000000D+00  0.31551469D-01
  0.00000000D+00  0.62285726D-01 -0.94149745D-05 -0.17371392D-04 -0.28193250D-04
 -0.35432768D-03  0.22194714D-04 -0.45630816D-05 -0.00000000D+00  0.14873394D-03
 -0.53463821D-03  0.00000000D+00  0.44914613D-03  0.10765793D-02  0.00000000D+00
  0.16521992D-04  0.18051806D-04  0.18104074D-03 -0.57816235D-03 -0.12264050D-03
  0.00000000D+00 -0.00000000D+00 -0.10924435D-02  0.44781534D-04 -0.16793075D-03
 -0.15353669D-03 -0.00000000D+00 -0.00000000D+00 -0.44737745D-03 -0.00000000D+00
  0.25925340D-03 -0.80899554D-03 -0.00000000D+00 -0.29334633D-03 -0.88003898D-03
 -0.00000000D+00  0.47494167D-03  0.25143971D-03  0.00000000D+00 -0.94149745D-05
 -0.17371392D-04 -0.28193250D-04 -0.35432768D-03  0.22194714D-04 -0.45630816D-05
 -0.00000000D+00 -0.14873394D-03 -0.53463821D-03  0.00000000D+00 -0.44914613D-03
  0.10765793D-02 -0.00000000D+00 -0.16521992D-04  0.18051806D-04  0.18104074D-03
 -0.57816235D-03 -0.12264050D-03  0.00000000D+00  0.00000000D+00  0.10924435D-02
  0.44781534D-04 -0.16793075D-03 -0.15353669D-03  0.00000000D+00 -0.00000000D+00
  0.44737745D-03 -0.00000000D+00 -0.25925340D-03 -0.80899554D-03 -0.00000000D+00
  0.29334633D-03 -0.88003898D-03 -0.00000000D+00 -0.47494167D-03  0.25143971D-03
 -0.00000000D+00
MO    2     MO 0.0        OCC NO =    2.0000000  ORB. ENERGY =   -1.349210
  0.23964494D-02  0.44746006D-02  0.77324011D-02  0.12447624D-01  0.18475650D-01
  0.23925174D-01  0.24655917D-01  0.16539511D-01  0.47134255D-02  0.47793762D-01
  0.91476902D-01  0.15701058D+00  0.25751583D+00  0.38448908D+00  0.53357141D+00
  0.60159719D+00  0.56650240D+00  0.22484253D+00 -0.23638168D+00 -0.21719566D+00
 -0.40473552D-01 -0.00000000D+00 -0.00000000D+00 -0.00000000D+00 -0.00000000D+00
 -0.00000000D+00 -0.00000000D+00 -0.17954545D+00 -0.19902174D+00 -0.17331073D+00
  0.00000000D+00 -0.00000000D+00 -0.93759725D-01 -0.00000000D+00 -0.00000000D+00
 -0.37487165D-01  0.00000000D+00 -0.00000000D+00 -0.97141829D-03 -0.50347246D-01
 -0.52029975D-01 -0.57044506D-01 -0.00000000D+00 -0.00000000D+00  0.00000000D+00
  0.25497892D-01 -0.19407366D-01 -0.56502788D-02 -0.00000000D+00  0.00000000D+00
  0.00000000D+00 -0.24692275D-02 -0.44960451D-02 -0.52115328D-02  0.00000000D+00
 -0.00000000D+00 -0.00000000D+00 -0.00000000D+00 -0.00000000D+00 -0.14720654D-01
  0.00000000D+00  0.00000000D+00 -0.11061818D-02 -0.00000000D+00  0.00000000D+00
 -0.61079173D-01  0.00000000D+00  0.00000000D+00  0.00000000D+00  0.27744463D-02
  0.00000000D+00  0.00000000D+00  0.56683504D-02  0.00000000D+00  0.00000000D+00
 -0.52380795D-03  0.00000000D+00 -0.39746542D-01  0.00000000D+00 -0.00000000D+00
 -0.37007615D-01 -0.00000000D+00 -0.45063803D-01  0.00000000D+00 -0.00000000D+00
  0.00000000D+00 -0.00000000D+00 -0.31960491D-01 -0.00000000D+00 -0.62463380D-01
 -0.00000000D+00 -0.12439380D+00 -0.16252936D-01 -0.29987985D-01 -0.48669605D-01
 -0.46898788D-01 -0.11878817D-01 -0.62666321D-03 -0.00000000D+00  0.32665189D-01
  0.20477045D-01  0.00000000D+00  0.15565828D-02  0.38948855D-02  0.00000000D+00
  0.21203223D-02  0.10883097D-02 -0.25228903D-02 -0.17701112D-01 -0.10354362D-01
 -0.00000000D+00 -0.00000000D+00 -0.20928386D-01 -0.73409729D-03 -0.20495548D-02
 -0.16153339D-02 -0.00000000D+00 -0.00000000D+00 -0.18850796D-02 -0.00000000D+00
  0.13346865D-01  0.57160689D-02  0.00000000D+00  0.10085526D-01  0.51545140D-02
  0.00000000D+00  0.14143484D-01  0.93032693D-02  0.00000000D+00 -0.16252936D-01
 -0.29987985D-01 -0.48669605D-01 -0.46898788D-01 -0.11878817D-01 -0.62666321D-03
  0.00000000D+00 -0.32665189D-01  0.20477045D-01 -0.00000000D+00 -0.15565828D-02
  0.38948855D-02  0.00000000D+00 -0.21203223D-02  0.10883097D-02 -0.25228903D-02
 -0.17701112D-01 -0.10354362D-01  0.00000000D+00  0.00000000D+00  0.20928386D-01
 -0.73409729D-03 -0.20495548D-02 -0.16153339D-02  0.00000000D+00 -0.00000000D+00
  0.18850796D-02  0.00000000D+00 -0.13346865D-01  0.57160689D-02  0.00000000D+00
 -0.10085526D-01  0.51545140D-02  0.00000000D+00 -0.14143484D-01  0.93032693D-02
 -0.00000000D+00
MO    3     MO 0.0        OCC NO =    2.0000000  ORB. ENERGY =   -0.711166
  0.00000000D+00  0.00000000D+00  0.00000000D+00  0.00000000D+00  0.00000000D+00
  0.00000000D+00  0.00000000D+00  0.00000000D+00  0.00000000D+00 -0.00000000D+00
 -0.00000000D+00 -0.00000000D+00 -0.00000000D+00 -0.00000000D+00 -0.00000000D+00
 -0.00000000D+00 -0.00000000D+00 -0.00000000D+00  0.00000000D+00  0.00000000D+00
  0.00000000D+00  0.00000000D+00  0.00000000D+00  0.00000000D+00  0.11412876D+01
  0.12650894D+01  0.11016564D+01 -0.00000000D+00 -0.00000000D+00 -0.00000000D+00
 -0.00000000D+00  0.62430179D+00 -0.00000000D+00  0.00000000D+00  0.18193228D+00
 -0.00000000D+00 -0.00000000D+00  0.17891457D-01 -0.00000000D+00  0.00000000D+00
  0.00000000D+00 -0.00000000D+00 -0.00000000D+00  0.00000000D+00  0.11608739D+00
  0.00000000D+00  0.00000000D+00 -0.00000000D+00  0.00000000D+00 -0.00000000D+00
  0.10259881D+00 -0.00000000D+00  0.00000000D+00 -0.00000000D+00 -0.00000000D+00
 -0.00000000D+00  0.10912382D-01 -0.00000000D+00  0.67907539D-01 -0.00000000D+00
 -0.00000000D+00  0.72350268D-02 -0.00000000D+00 -0.00000000D+00  0.79704882D-01
 -0.00000000D+00  0.00000000D+00 -0.00000000D+00  0.11760808D-01 -0.00000000D+00
 -0.00000000D+00  0.36385945D-02 -0.00000000D+00 -0.00000000D+00  0.81470844D-02
 -0.00000000D+00 -0.00000000D+00 -0.00000000D+00 -0.00000000D+00  0.00000000D+00
 -0.00000000D+00 -0.20768121D-01  0.00000000D+00 -0.00000000D+00  0.00000000D+00
 -0.00000000D+00  0.00000000D+00 -0.00000000D+00 -0.41930195D-01 -0.00000000D+00
 -0.97461350D-01  0.00000000D+00  0.24841634D-01  0.45834830D-01  0.74388562D-01
  0.83965433D-01  0.46617157D-01  0.48888154D-02 -0.00000000D+00 -0.33388759D-01
 -0.31193929D-01  0.00000000D+00  0.36388837D-02 -0.76446271D-02  0.00000000D+00
 -0.51242653D-02 -0.58931498D-02  0.19330479D-02  0.13122533D-01  0.15943265D-01
 -0.00000000D+00 -0.00000000D+00  0.28909293D-01 -0.46380874D-04  0.26421105D-02
  0.33394230D-02 -0.00000000D+00 -0.00000000D+00  0.56316926D-02 -0.00000000D+00
 -0.17807272D-01 -0.10535683D-01  0.00000000D+00 -0.16776616D-01 -0.71380940D-02
 -0.00000000D+00 -0.26121792D-01 -0.16490254D-01  0.00000000D+00 -0.24841634D-01
 -0.45834830D-01 -0.74388562D-01 -0.83965433D-01 -0.46617157D-01 -0.48888154D-02
 -0.00000000D+00 -0.33388759D-01  0.31193929D-01  0.00000000D+00  0.36388837D-02
  0.76446271D-02  0.00000000D+00 -0.51242653D-02  0.58931498D-02 -0.19330479D-02
 -0.13122533D-01 -0.15943265D-01  0.00000000D+00 -0.00000000D+00  0.28909293D-01
  0.46380874D-04 -0.26421105D-02 -0.33394230D-02  0.00000000D+00 -0.00000000D+00
  0.56316926D-02  0.00000000D+00 -0.17807272D-01  0.10535683D-01  0.00000000D+00
 -0.16776616D-01  0.71380940D-02  0.00000000D+00 -0.26121792D-01  0.16490254D-01
 -0.00000000D+00
MO    4     MO 0.0        OCC NO =    2.0000000  ORB. ENERGY =   -0.583956
 -0.51748975D-03 -0.96624613D-03 -0.16697362D-02 -0.26879424D-02 -0.39896355D-02
 -0.51664067D-02 -0.53242035D-02 -0.35715453D-02 -0.10178180D-02  0.17000500D-01
  0.32538830D-01  0.55849514D-01  0.91599778D-01  0.13676485D+00  0.18979424D+00
  0.21399138D+00  0.20150797D+00  0.79977708D-01 -0.72392862D-01 -0.77975685D-01
 -0.63853518D-01 -0.00000000D+00 -0.00000000D+00 -0.00000000D+00  0.00000000D+00
  0.00000000D+00  0.00000000D+00  0.12541089D+01  0.13901490D+01  0.12105599D+01
  0.00000000D+00  0.00000000D+00  0.70828112D+00  0.00000000D+00  0.00000000D+00
  0.20249092D+00 -0.00000000D+00  0.00000000D+00  0.33802485D-01 -0.53275194D-01
 -0.13832031D-01  0.29111208D-01 -0.00000000D+00  0.00000000D+00  0.00000000D+00
 -0.70283320D-02  0.15661354D-01  0.31460773D-01  0.00000000D+00 -0.00000000D+00
  0.00000000D+00  0.24545202D-02  0.99468687D-02  0.16470129D-01 -0.00000000D+00
 -0.00000000D+00  0.00000000D+00 -0.00000000D+00  0.00000000D+00  0.52478261D-01
 -0.00000000D+00  0.00000000D+00  0.21764874D-01 -0.00000000D+00 -0.00000000D+00
  0.91603810D-01 -0.00000000D+00 -0.00000000D+00  0.00000000D+00  0.26947581D-01
 -0.00000000D+00  0.00000000D+00  0.16785239D-01 -0.00000000D+00  0.00000000D+00
  0.35871491D-01 -0.00000000D+00 -0.72129945D-02  0.00000000D+00  0.00000000D+00
 -0.14269145D-01  0.00000000D+00 -0.10153657D-01 -0.00000000D+00  0.00000000D+00
  0.00000000D+00  0.00000000D+00 -0.27283346D-01  0.00000000D+00  0.20714534D-01
 -0.00000000D+00  0.87761405D-02  0.14944255D-01  0.27573362D-01  0.44750744D-01
  0.44502714D-01  0.29859116D-01  0.22779137D-02 -0.00000000D+00 -0.45910549D-01
 -0.24119017D-02  0.00000000D+00  0.20992153D-01  0.92469245D-02  0.00000000D+00
 -0.43795518D-02  0.51842340D-02 -0.19856081D-03  0.14454059D-01 -0.24294499D-02
 -0.00000000D+00 -0.00000000D+00  0.86282808D-02 -0.16337263D-02 -0.54617478D-03
 -0.40327371D-02 -0.00000000D+00 -0.00000000D+00 -0.44779297D-02 -0.00000000D+00
 -0.32962664D-01 -0.87146624D-03 -0.00000000D+00 -0.27644399D-01 -0.31849030D-02
 -0.00000000D+00 -0.25297629D-01 -0.41417708D-02  0.00000000D+00  0.14944255D-01
  0.27573362D-01  0.44750744D-01  0.44502714D-01  0.29859116D-01  0.22779137D-02
  0.00000000D+00  0.45910549D-01 -0.24119017D-02 -0.00000000D+00 -0.20992153D-01
  0.92469245D-02  0.00000000D+00  0.43795518D-02  0.51842340D-02 -0.19856081D-03
  0.14454059D-01 -0.24294499D-02 -0.00000000D+00 -0.00000000D+00 -0.86282808D-02
 -0.16337263D-02 -0.54617478D-03 -0.40327371D-02  0.00000000D+00  0.00000000D+00
  0.44779297D-02  0.00000000D+00  0.32962664D-01 -0.87146624D-03  0.00000000D+00
  0.27644399D-01 -0.31849030D-02  0.00000000D+00  0.25297629D-01 -0.41417708D-02
  0.00000000D+00
MO    5     MO 0.0        OCC NO =    2.0000000  ORB. ENERGY =   -0.508701
 -0.00000000D+00 -0.00000000D+00 -0.00000000D+00 -0.00000000D+00 -0.00000000D+00
 -0.00000000D+00 -0.00000000D+00 -0.00000000D+00 -0.00000000D+00  0.00000000D+00
  0.00000000D+00  0.00000000D+00  0.00000000D+00  0.00000000D+00  0.00000000D+00
  0.00000000D+00  0.00000000D+00  0.00000000D+00  0.00000000D+00 -0.00000000D+00
 -0.00000000D+00  0.14273168D+01  0.15821457D+01  0.13777532D+01 -0.00000000D+00
 -0.00000000D+00 -0.00000000D+00  0.00000000D+00  0.00000000D+00  0.00000000D+00
  0.83233603D+00  0.00000000D+00  0.00000000D+00  0.21045990D+00 -0.00000000D+00
 -0.00000000D+00  0.47748089D-01 -0.00000000D+00 -0.00000000D+00  0.00000000D+00
  0.00000000D+00  0.00000000D+00  0.00000000D+00  0.75166806D-01  0.00000000D+00
 -0.00000000D+00  0.00000000D+00  0.00000000D+00  0.00000000D+00  0.24495753D-01
 -0.00000000D+00  0.00000000D+00  0.00000000D+00  0.00000000D+00  0.00000000D+00
  0.10663153D-01 -0.00000000D+00  0.31888064D-01 -0.00000000D+00  0.00000000D+00
  0.80541993D-01 -0.00000000D+00  0.00000000D+00  0.62424529D-01 -0.00000000D+00
  0.00000000D+00 -0.00000000D+00  0.36875141D-01  0.00000000D+00 -0.00000000D+00
  0.49418007D-01  0.00000000D+00 -0.00000000D+00  0.45096591D-01  0.00000000D+00
 -0.00000000D+00 -0.00000000D+00  0.00000000D+00  0.00000000D+00  0.41980709D-02
  0.00000000D+00  0.00000000D+00  0.00000000D+00  0.00000000D+00  0.13887787D-01
  0.00000000D+00  0.22503632D-01 -0.00000000D+00 -0.00000000D+00 -0.00000000D+00
 -0.00000000D+00 -0.00000000D+00 -0.00000000D+00 -0.00000000D+00 -0.00000000D+00
  0.00000000D+00  0.00000000D+00  0.00000000D+00  0.31354722D-01  0.00000000D+00
  0.00000000D+00 -0.42628882D-03 -0.00000000D+00 -0.00000000D+00  0.95830614D-02
 -0.00000000D+00 -0.00000000D+00 -0.00000000D+00 -0.00000000D+00  0.00000000D+00
 -0.14960407D-01 -0.12168607D-01  0.00000000D+00  0.00000000D+00  0.00000000D+00
  0.00000000D+00 -0.60956909D-02 -0.41219668D-02  0.00000000D+00  0.14793061D-01
  0.00000000D+00  0.00000000D+00  0.22741325D-01  0.00000000D+00  0.00000000D+00
  0.19710079D-01  0.00000000D+00  0.00000000D+00  0.11274776D-01 -0.00000000D+00
 -0.00000000D+00 -0.00000000D+00  0.00000000D+00 -0.00000000D+00  0.00000000D+00
  0.31354722D-01  0.00000000D+00 -0.00000000D+00 -0.42628882D-03 -0.00000000D+00
  0.00000000D+00  0.95830614D-02 -0.00000000D+00  0.00000000D+00 -0.00000000D+00
 -0.00000000D+00 -0.00000000D+00  0.14960407D-01 -0.12168607D-01 -0.00000000D+00
  0.00000000D+00 -0.00000000D+00  0.00000000D+00  0.60956909D-02 -0.41219668D-02
  0.00000000D+00  0.14793061D-01  0.00000000D+00 -0.00000000D+00  0.22741325D-01
  0.00000000D+00 -0.00000000D+00  0.19710079D-01  0.00000000D+00 -0.00000000D+00
 -0.11274776D-01
MO    6     MO 0.0        OCC NO =    0.0000000  ORB. ENERGY =    0.104480
  0.78057437D-02  0.14574723D-01  0.25186070D-01  0.40544551D-01  0.60179109D-01
  0.77929364D-01  0.80309548D-01  0.53872694D-01  0.15352626D-01 -0.18820054D-01
 -0.36021443D-01 -0.61827057D-01 -0.10140365D+00 -0.15140272D+00 -0.21010782D+00
 -0.23689476D+00 -0.22307526D+00 -0.88537679D-01 -0.26944665D+00  0.14362317D+00
  0.75412368D+00 -0.00000000D+00 -0.00000000D+00 -0.00000000D+00  0.00000000D+00
  0.00000000D+00  0.00000000D+00  0.29112001D+00  0.32269941D+00  0.28101086D+00
  0.00000000D+00  0.00000000D+00  0.17102945D+00  0.00000000D+00  0.00000000D+00
  0.19203974D+00 -0.00000000D+00  0.16133836D-06  0.88869366D-01 -0.36385645D+00
 -0.27510933D+00 -0.27926567D+00  0.00000000D+00  0.00000000D+00  0.00000000D+00
 -0.10945754D+00 -0.13933186D+00 -0.13523157D+00 -0.00000000D+00 -0.00000000D+00
 -0.00000000D+00 -0.22160720D+00 -0.15540035D+00 -0.16776358D+00  0.00000000D+00
  0.00000000D+00 -0.00000000D+00 -0.00000000D+00  0.00000000D+00 -0.32757131D-02
 -0.00000000D+00  0.00000000D+00 -0.23917444D-02 -0.00000000D+00 -0.00000000D+00
  0.31869994D-01  0.00000000D+00 -0.00000000D+00  0.00000000D+00  0.46035102D-02
 -0.00000000D+00  0.00000000D+00 -0.29548381D-01 -0.00000000D+00 -0.00000000D+00
  0.84309696D-01  0.00000000D+00 -0.30739608D+00  0.00000000D+00  0.00000000D+00
 -0.37892684D+00 -0.00000000D+00 -0.41035709D+00  0.00000000D+00  0.00000000D+00
  0.00000000D+00  0.00000000D+00 -0.53748191D+00  0.00000000D+00 -0.50059532D+00
 -0.00000000D+00 -0.11758962D+01 -0.63434512D-02 -0.11704182D-01 -0.18995538D-01
 -0.10019232D+00 -0.46009383D-01 -0.13693398D+00 -0.00000000D+00  0.11168713D+00
  0.95334435D-01  0.00000000D+00 -0.74399399D-01 -0.62861029D-01 -0.00000000D+00
  0.69221334D-01  0.48727944D-01 -0.24551460D-01 -0.39881522D-01 -0.37831674D-01
 -0.00000000D+00 -0.00000000D+00 -0.21312764D-01 -0.38332193D-01 -0.80920232D-01
 -0.60806126D-01  0.00000000D+00  0.00000000D+00 -0.58553813D-01 -0.00000000D+00
  0.16699355D+00  0.12644694D+00 -0.00000000D+00  0.14510167D+00  0.11670993D+00
 -0.00000000D+00  0.17141204D+00  0.15274962D+00 -0.00000000D+00 -0.63434512D-02
 -0.11704182D-01 -0.18995538D-01 -0.10019232D+00 -0.46009641D-01 -0.13693398D+00
 -0.00000000D+00 -0.11168713D+00  0.95334435D-01  0.00000000D+00  0.74399399D-01
 -0.62861029D-01 -0.00000000D+00 -0.69221334D-01  0.48728250D-01 -0.24551460D-01
 -0.39881522D-01 -0.37831674D-01  0.00000000D+00 -0.00000000D+00  0.21312764D-01
 -0.38332193D-01 -0.80920232D-01 -0.60806126D-01 -0.00000000D+00 -0.00000000D+00
  0.58553813D-01 -0.00000000D+00 -0.16699355D+00  0.12644694D+00 -0.00000000D+00
 -0.14510167D+00  0.11670993D+00 -0.00000000D+00 -0.17141204D+00  0.15274962D+00
  0.00000000D+00
MO    7     MO 0.0        OCC NO =    0.0000000  ORB. ENERGY =    0.164255
 -0.00000000D+00 -0.00000000D+00 -0.00000000D+00 -0.00000000D+00 -0.00000000D+00
 -0.00000000D+00 -0.00000000D+00 -0.00000000D+00 -0.00000000D+00  0.00000000D+00
  0.00000000D+00  0.00000000D+00  0.00000000D+00  0.00000000D+00  0.00000000D+00
  0.00000000D+00  0.00000000D+00  0.00000000D+00  0.00000000D+00 -0.00000000D+00
 -0.21848189D-06 -0.00000000D+00 -0.00000000D+00 -0.00000000D+00  0.43080999D+00
  0.47754232D+00  0.41585009D+00 -0.00000000D+00 -0.00000000D+00 -0.00000000D+00
  0.00000000D+00  0.31467428D+00 -0.00000000D+00 -0.00000000D+00  0.32293816D+00
 -0.64489609D-06  0.00000000D+00  0.19077294D+00 -0.16133836D-06  0.00000000D+00
  0.00000000D+00 -0.00000000D+00  0.00000000D+00 -0.00000000D+00  0.23121298D+00
  0.00000000D+00 -0.00000000D+00  0.00000000D+00 -0.00000000D+00  0.00000000D+00
 -0.52659777D-01  0.00000000D+00  0.00000000D+00 -0.00000000D+00 -0.00000000D+00
 -0.00000000D+00  0.22803229D+00 -0.00000000D+00  0.81424869D-01 -0.00000000D+00
 -0.00000000D+00  0.70855428D-01 -0.00000000D+00 -0.00000000D+00  0.77731693D-01
 -0.00000000D+00  0.00000000D+00  0.00000000D+00  0.87086030D-01 -0.00000000D+00
  0.00000000D+00 -0.10120718D-01  0.00000000D+00  0.00000000D+00  0.17032411D+00
  0.00000000D+00 -0.00000000D+00  0.00000000D+00  0.00000000D+00 -0.00000000D+00
  0.00000000D+00  0.13447636D+00 -0.00000000D+00  0.00000000D+00 -0.00000000D+00
  0.00000000D+00 -0.00000000D+00  0.00000000D+00  0.62624510D+00 -0.00000000D+00
  0.93986424D+00 -0.00000000D+00 -0.61878799D-02 -0.11417140D-01 -0.18529678D-01
 -0.20906055D+00 -0.24050037D-01 -0.26772161D+00 -0.00000000D+00  0.15203020D-01
 -0.24320009D-01  0.00000000D+00  0.79232577D-01  0.92001813D-01 -0.00000000D+00
  0.10889829D+00  0.87783486D-01 -0.38363116D-01 -0.73660219D-01 -0.53506298D-01
  0.00000000D+00 -0.00000000D+00 -0.45316176D-01 -0.77831905D-01 -0.14522731D+00
 -0.11736440D+00 -0.00000000D+00 -0.00000000D+00 -0.11304106D+00 -0.00000000D+00
  0.74555655D-01  0.50351383D-02 -0.00000000D+00  0.35725392D-01 -0.10686188D-01
 -0.00000000D+00  0.10544404D+00  0.84707244D-01 -0.00000000D+00  0.61878799D-02
  0.11417140D-01  0.18529678D-01  0.20906055D+00  0.24050295D-01  0.26772161D+00
 -0.00000000D+00  0.15203020D-01  0.24320009D-01  0.00000000D+00  0.79232577D-01
 -0.92001813D-01  0.00000000D+00  0.10889798D+00 -0.87783792D-01  0.38363116D-01
  0.73660219D-01  0.53506298D-01 -0.00000000D+00 -0.00000000D+00 -0.45316176D-01
  0.77831905D-01  0.14522651D+00  0.11736440D+00 -0.00000000D+00  0.00000000D+00
 -0.11304106D+00 -0.00000000D+00  0.74555655D-01 -0.50351383D-02 -0.00000000D+00
  0.35725392D-01  0.10686188D-01  0.00000000D+00  0.10544404D+00 -0.84707244D-01
 -0.00000000D+00
MO    8     MO 0.0        OCC NO =    0.0000000  ORB. ENERGY =    0.429911
  0.00000000D+00  0.00000000D+00  0.00000000D+00  0.00000000D+00  0.00000000D+00
  0.00000000D+00  0.00000000D+00  0.00000000D+00  0.00000000D+00  0.00000000D+00
  0.00000000D+00  0.00000000D+00  0.00000000D+00  0.00000000D+00  0.00000000D+00
  0.00000000D+00  0.00000000D+00  0.00000000D+00 -0.00000000D+00  0.00000000D+00
  0.43696379D-06  0.00000000D+00  0.00000000D+00  0.00000000D+00 -0.42679008D+00
 -0.47308635D+00 -0.41196977D+00 -0.00000000D+00 -0.00000000D+00 -0.00000000D+00
 -0.00000000D+00 -0.82603910D+00 -0.00000000D+00  0.00000000D+00  0.56763044D+00
  0.00000000D+00  0.00000000D+00 -0.28723521D+00  0.16133836D-06 -0.00000000D+00
 -0.00000000D+00 -0.00000000D+00  0.00000000D+00 -0.00000000D+00  0.35616067D-01
 -0.00000000D+00  0.00000000D+00 -0.00000000D+00 -0.00000000D+00 -0.00000000D+00
  0.29556885D+00 -0.00000000D+00 -0.39749315D-06  0.00000000D+00  0.00000000D+00
  0.00000000D+00 -0.14505412D+00 -0.00000000D+00 -0.32884149D+00 -0.00000000D+00
  0.00000000D+00 -0.47592724D+00  0.00000000D+00  0.00000000D+00 -0.14048509D+00
  0.00000000D+00 -0.00000000D+00 -0.00000000D+00 -0.53714765D+00  0.00000000D+00
 -0.00000000D+00 -0.51444956D+00 -0.00000000D+00 -0.00000000D+00 -0.63569240D+00
  0.00000000D+00 -0.00000000D+00 -0.00000000D+00  0.00000000D+00  0.00000000D+00
 -0.00000000D+00  0.38215249D-01 -0.00000000D+00  0.00000000D+00 -0.00000000D+00
  0.00000000D+00 -0.00000000D+00 -0.00000000D+00 -0.12254940D+00  0.00000000D+00
 -0.33008237D+00  0.00000000D+00  0.22416606D-02  0.41360456D-02  0.67126787D-02
 -0.93793966D-01  0.70999960D+00 -0.80734486D-01  0.00000000D+00  0.39986114D+00
  0.46210027D+00 -0.00000000D+00 -0.46865827D+00 -0.48421610D+00  0.00000000D+00
 -0.15417466D-02  0.36388770D-01 -0.62184573D-01 -0.93376140D-01 -0.84732905D-01
  0.00000000D+00 -0.00000000D+00 -0.51213348D-01 -0.15965576D+00 -0.13014074D+00
 -0.17414739D+00 -0.00000000D+00 -0.00000000D+00  0.12347895D-01  0.00000000D+00
  0.45283760D+00  0.52928299D+00  0.00000000D+00  0.42215330D+00  0.48437066D+00
  0.00000000D+00  0.53993884D+00  0.59953005D+00  0.00000000D+00 -0.22416606D-02
 -0.41360456D-02 -0.67126787D-02  0.93793364D-01 -0.70999831D+00  0.80734135D-01
 -0.00000000D+00  0.39985712D+00 -0.46210027D+00  0.00000000D+00 -0.46865713D+00
  0.48421610D+00 -0.00000000D+00 -0.15423586D-02 -0.36388770D-01  0.62184573D-01
  0.93376140D-01  0.84732905D-01  0.00000000D+00  0.00000000D+00 -0.51213348D-01
  0.15965576D+00  0.13013994D+00  0.17414659D+00 -0.00000000D+00 -0.00000000D+00
  0.12347895D-01 -0.00000000D+00  0.45283447D+00 -0.52928299D+00 -0.00000000D+00
  0.42214632D+00 -0.48437066D+00 -0.00000000D+00  0.53993884D+00 -0.59953005D+00
 -0.00000000D+00
MO    9     MO 0.0        OCC NO =    0.0000000  ORB. ENERGY =    0.441757
 -0.94089274D-02 -0.17568154D-01 -0.30358915D-01 -0.48871799D-01 -0.72539003D-01
 -0.93934897D-01 -0.96803936D-01 -0.64937345D-01 -0.18505828D-01 -0.51087306D-02
 -0.97780721D-02 -0.16783043D-01 -0.27526166D-01 -0.41098484D-01 -0.57034067D-01
 -0.64305421D-01 -0.60554098D-01 -0.24033679D-01  0.14683023D-01  0.98326241D+00
  0.89929004D+00  0.00000000D+00  0.00000000D+00  0.00000000D+00 -0.00000000D+00
 -0.00000000D+00 -0.00000000D+00 -0.37871096D+00 -0.41979182D+00 -0.36556020D+00
 -0.00000000D+00  0.00000000D+00  0.33231977D+00  0.00000000D+00 -0.64489609D-06
 -0.52017963D-01  0.00000000D+00  0.00000000D+00  0.47036216D+00  0.17396050D+00
  0.60270298D+00  0.53520872D+00 -0.00000000D+00  0.00000000D+00 -0.00000000D+00
  0.14032958D+00 -0.21518471D+00 -0.14729279D+00  0.00000000D+00 -0.00000000D+00
  0.00000000D+00  0.22237357D-01  0.44609663D+00  0.30639170D+00 -0.00000000D+00
  0.00000000D+00 -0.68847834D-06  0.00000000D+00  0.00000000D+00  0.39225662D+00
  0.00000000D+00  0.00000000D+00  0.48964987D+00  0.00000000D+00  0.00000000D+00
  0.25014657D+00  0.00000000D+00 -0.00000000D+00  0.10457770D-05  0.49773231D+00
 -0.00000000D+00  0.00000000D+00  0.37193171D+00 -0.00000000D+00 -0.00000000D+00
  0.95296100D+00 -0.00000000D+00 -0.94021173D-01 -0.00000000D+00 -0.00000000D+00
  0.21017592D+00 -0.00000000D+00  0.12940748D+00 -0.00000000D+00  0.00000000D+00
 -0.00000000D+00  0.00000000D+00  0.22003095D+01 -0.00000000D+00  0.27024472D+01
 -0.00000000D+00  0.20196138D+01 -0.12535366D-02 -0.23128767D-02 -0.37537299D-02
 -0.21944253D+00 -0.10825735D+01  0.24373525D-01 -0.00000000D+00 -0.83148301D+00
 -0.57933879D-01  0.00000000D+00  0.11648199D+01  0.31832689D+00 -0.00000000D+00
  0.27767227D+00  0.27763617D+00  0.22857853D-01 -0.41265608D-01 -0.92213975D-02
 -0.00000000D+00  0.00000000D+00 -0.80891397D-01  0.86060512D-01 -0.99988369D-01
 -0.40333768D-01  0.00000000D+00 -0.00000000D+00 -0.29600043D+00 -0.00000000D+00
 -0.89322478D+00 -0.28130555D-01 -0.00000000D+00 -0.93833109D+00 -0.68000473D-01
 -0.00000000D+00 -0.83244005D+00  0.82067127D-01 -0.00000000D+00 -0.12535366D-02
 -0.23128767D-02 -0.37537299D-02 -0.21944313D+00 -0.10825750D+01  0.24373525D-01
 -0.00000000D+00  0.83148301D+00 -0.57937899D-01  0.00000000D+00 -0.11648211D+01
  0.31833032D+00 -0.00000000D+00 -0.27767197D+00  0.27763647D+00  0.22857853D-01
 -0.41265608D-01 -0.92213975D-02  0.00000000D+00 -0.00000000D+00  0.80891397D-01
  0.86060512D-01 -0.99987569D-01 -0.40334568D-01 -0.00000000D+00  0.00000000D+00
  0.29600043D+00 -0.00000000D+00  0.89322478D+00 -0.28130555D-01 -0.00000000D+00
  0.93833109D+00 -0.68000473D-01 -0.00000000D+00  0.83244005D+00  0.82067127D-01
  0.00000000D+00
MO   10     MO 0.0        OCC NO =    0.0000000  ORB. ENERGY =    0.464920
  0.16392642D-02  0.30608002D-02  0.52892620D-02  0.85146570D-02  0.12638060D-01
  0.16365746D-01  0.16865602D-01  0.11313666D-01  0.32241657D-02 -0.11296120D-01
 -0.21620689D-01 -0.37109662D-01 -0.60864215D-01 -0.90874514D-01 -0.12611032D+00
 -0.14218831D+00 -0.13389361D+00 -0.53141837D-01  0.29326478D+00 -0.74153632D+00
 -0.64446150D+00  0.00000000D+00  0.00000000D+00  0.00000000D+00  0.00000000D+00
  0.00000000D+00  0.00000000D+00  0.69618018D+00  0.77169868D+00  0.67200529D+00
 -0.00000000D+00 -0.00000000D+00  0.46287067D+00  0.00000000D+00  0.64489609D-06