[Molden Format]
[Title]
 Molden2AIM, Version 3.1.0 (02/25/2015)           Time: Wed May 25 16:41:56 2016

[Atoms] AU
O       1       1     0.00000000     0.00000000    -0.12580851
H       2       1     0.00000000     1.42518410     0.99849531
H       3       1     0.00000000    -1.42518221     0.99849720
[GTO]
    1 0
 S   6 1.0
    0.8588500000D+04      0.1895150083D-02
    0.1297230000D+04      0.1438590063D-01
    0.2992960000D+03      0.7073200310D-01
    0.8737710000D+02      0.2400010105D+00
    0.2567890000D+02      0.5947970261D+00
    0.3740040000D+01      0.2808020123D+00
 S   3 1.0
    0.4211750000D+02      0.1138890124D+00
    0.9628370000D+01      0.9208111006D+00
    0.2853320000D+01     -0.3274470358D-02
 P   3 1.0
    0.4211750000D+02      0.3651139738D-01
    0.9628370000D+01      0.2371529830D+00
    0.2853320000D+01      0.8197019412D+00
 S   1 1.0
    0.9056610000D+00      0.1000000000D+01
 P   1 1.0
    0.9056610000D+00      0.1000000000D+01
 S   1 1.0
    0.2556110000D+00      0.1000000000D+01
 P   1 1.0
    0.2556110000D+00      0.1000000000D+01

    2 0
 S   3 1.0
    0.3386500000D+02      0.2549381454D-01
    0.5094790000D+01      0.1903731086D+00
    0.1158790000D+01      0.8521614860D+00
 S   1 1.0
    0.3258400000D+00      0.1000000000D+01
 S   1 1.0
    0.1027410000D+00      0.1000000000D+01

    3 0
 S   3 1.0
    0.3386500000D+02      0.2549381454D-01
    0.5094790000D+01      0.1903731086D+00
    0.1158790000D+01      0.8521614860D+00
 S   1 1.0
    0.3258400000D+00      0.1000000000D+01
 S   1 1.0
    0.1027410000D+00      0.1000000000D+01


[MO]
 Ene=        -20.55460000
 Spin= Alpha
 Occup=        2.00000000
    1        0.5514530000
    2        0.4716840000
    3       -0.0000000000
    4        0.0000000000
    5        0.0025510000
    6        0.0054630000
    7        0.0000000000
    8       -0.0000000000
    9       -0.0009390000
   10       -0.0001350000
   11       -0.0000000000
   12        0.0000000000
   13        0.0003570000
   14        0.0002080000
   15       -0.0001200000
   16        0.0001000000
   17        0.0002080000
   18       -0.0001200000
   19        0.0001000000
 Ene=         -1.35823000
 Spin= Alpha
 Occup=        2.00000000
    1        0.1131690000
    2        0.1898880000
    3       -0.0000000000
    4       -0.0000000000
    5       -0.0418690000
    6       -0.5427950000
    7       -0.0000000000
    8       -0.0000000000
    9       -0.0933720000
   10       -0.4413040000
   11        0.0000000000
   12       -0.0000000000
   13       -0.0563660000
   14       -0.0978320000
   15       -0.0385890000
   16        0.0038250000
   17       -0.0978320000
   18       -0.0385890000
   19        0.0038250000
 Ene=         -0.70816100
 Spin= Alpha
 Occup=        2.00000000
    1       -0.0000000000
    2       -0.0000000000
    3        0.0000000000
    4        0.2214020000
    5       -0.0000000000
    6        0.0000000000
    7        0.0000000000
    8        0.3678780000
    9       -0.0000000000
   10        0.0000000000
   11        0.0000000000
   12        0.2259620000
   13       -0.0000000000
   14        0.1585050000
   15        0.2009060000
   16        0.0523420000
   17       -0.1585050000
   18       -0.2009060000
   19       -0.0523420000
 Ene=         -0.56551500
 Spin= Alpha
 Occup=        2.00000000
    1        0.0413010000
    2        0.0698530000
    3        0.0000000000
    4        0.0000000000
    5        0.2507780000
    6       -0.2130330000
    7        0.0000000000
    8        0.0000000000
    9        0.3803300000
   10       -0.2869770000
   11        0.0000000000
   12        0.0000000000
   13        0.3782200000
   14        0.0893890000
   15        0.1104630000
   16        0.0313960000
   17        0.0893890000
   18        0.1104630000
   19        0.0313960000
 Ene=         -0.50452100
 Spin= Alpha
 Occup=        2.00000000
    1       -0.0000000000
    2       -0.0000000000
    3        0.2935480000
    4       -0.0000000000
    5       -0.0000000000
    6        0.0000000000
    7        0.4408700000
    8       -0.0000000000
    9       -0.0000000000
   10        0.0000000000
   11        0.4864540000
   12       -0.0000000000
   13       -0.0000000000
   14       -0.0000000000
   15       -0.0000000000
   16       -0.0000000000
   17       -0.0000000000
   18       -0.0000000000
   19       -0.0000000000
 Ene=          0.14037700
 Spin= Alpha
 Occup=        0.00000000
    1        0.0333610000
    2        0.0545650000
    3        0.0000000000
    4       -0.0000000000
    5       -0.0800220000
    6       -0.1053330000
    7        0.0000000000
    8       -0.0000000000
    9       -0.1336390000
   10       -0.8496970000
   11        0.0000000000
   12       -0.0000000000
   13       -0.2182640000
   14        0.0371910000
   15       -0.0427170000
   16        0.8270280000
   17        0.0371910000
   18       -0.0427170000
   19        0.8270270000
 Ene=          0.21308200
 Spin= Alpha
 Occup=        0.00000000
    1        0.0000000000
    2        0.0000000000
    3       -0.0000000000
    4        0.1252270000
    5       -0.0000000000
    6       -0.0000000000
    7       -0.0000000000
    8        0.1455080000
    9       -0.0000000000
   10       -0.0000000000
   11        0.0000000000
   12        0.5229990000
   13       -0.0000000000
   14       -0.0252410000
   15        0.0987240000
   16       -1.5536410000
   17        0.0252410000
   18       -0.0987240000
   19        1.5536410000
 Ene=          0.55429800
 Spin= Alpha
 Occup=        0.00000000
    1        0.0000000000
    2        0.0000000000
    3        0.0000000000
    4       -0.1285800000
    5       -0.0000000000
    6       -0.0000000000
    7        0.0000000000
    8       -0.1922650000
    9       -0.0000000000
   10       -0.0000010000
   11       -0.0000000000
   12       -1.0586600000
   13       -0.0000000000
   14        0.0866220000
   15        1.4238940000
   16       -0.7946540000
   17       -0.0866220000
   18       -1.4238910000
   19        0.7946520000
 Ene=          0.59848300
 Spin= Alpha
 Occup=        0.00000000
    1       -0.0336240000
    2       -0.0587510000
    3        0.0000000000
    4       -0.0000000000
    5        0.1122210000
    6        0.1515420000
    7        0.0000000000
    8       -0.0000000000
    9        0.1885790000
   10        1.1620290000
   11       -0.0000000000
   12       -0.0000010000
   13        0.9720820000
   14       -0.0713940000
   15       -1.7110920000
   16        0.6454800000
   17       -0.0713940000
   18       -1.7110960000
   19        0.6454820000
 Ene=          0.99981100
 Spin= Alpha
 Occup=        0.00000000
    1       -0.0000000000
    2       -0.0000000000
    3       -0.2408330000
    4       -0.0000000000
    5       -0.0000000000
    6       -0.0000000000
    7       -0.8364820000
    8       -0.0000000000
    9       -0.0000000000
   10        0.0000000000
   11        1.1369220000
   12        0.0000000000
   13        0.0000000000
   14       -0.0000000000
   15       -0.0000000000
   16       -0.0000000000
   17       -0.0000000000
   18       -0.0000000000
   19        0.0000000000
 Ene=          1.02644000
 Spin= Alpha
 Occup=        0.00000000
    1       -0.0211690000
    2       -0.0377300000
    3        0.0000000000
    4       -0.0000000000
    5       -0.2251210000
    6        0.1443240000
    7        0.0000000000
    8       -0.0000010000
    9       -0.8377560000
   10        0.3540210000
   11       -0.0000000000
   12        0.0000010000
   13        1.4146590000
   14       -0.0492070000
   15       -0.3367360000
   16       -0.0629050000
   17       -0.0492070000
   18       -0.3367360000
   19       -0.0629050000
 Ene=          1.15089000
 Spin= Alpha
 Occup=        0.00000000
    1       -0.0000000000
    2       -0.0000000000
    3        0.0000000000
    4       -0.2384420000
    5        0.0000000000
    6        0.0000000000
    7        0.0000000000
    8       -0.9071830000
    9        0.0000010000
   10       -0.0000000000
   11       -0.0000000000
   12        1.6950380000
   13       -0.0000010000
   14       -0.0259010000
   15       -0.1749600000
   16       -0.7493750000
   17        0.0259010000
   18        0.1749600000
   19        0.7493750000
 Ene=          1.43552000
 Spin= Alpha
 Occup=        0.00000000
    1       -0.1178720000
    2       -0.2491930000
    3       -0.0000000000
    4        0.0000000000
    5        0.0467330000
    6        1.8180210000
    7       -0.0000000000
    8        0.0000000000
    9        0.1457140000
   10       -2.8876210000
   11        0.0000000000
   12       -0.0000010000
   13       -0.8076210000
   14       -0.0028000000
   15        0.7143140000
   16        0.3177000000
   17       -0.0028000000
   18        0.7143140000
   19        0.3177000000
 Ene=          2.46585000
 Spin= Alpha
 Occup=        0.00000000
    1       -0.0089930000
    2       -0.0076320000
    3        0.0000000000
    4        0.0000000000
    5        0.1594150000
    6       -0.1152900000
    7       -0.0000000000
    8       -0.0000000000
    9        0.0171980000
   10       -0.4290320000
   11       -0.0000000000
   12       -0.0000000000
   13       -0.3750080000
   14       -1.0924920000
   15        1.5805860000
   16       -0.4951290000
   17       -1.0924910000
   18        1.5805850000
   19       -0.4951280000
 Ene=          2.49630000
 Spin= Alpha
 Occup=        0.00000000
    1        0.0000000000
    2        0.0000000000
    3        0.0000000000
    4        0.1747150000
    5       -0.0000000000
    6       -0.0000000000
    7       -0.0000000000
    8       -0.0398810000
    9       -0.0000000000
   10        0.0000000000
   11        0.0000000000
   12       -0.2860070000
   13        0.0000000000
   14       -1.1084010000
   15        1.6423280000
   16       -0.7981990000
   17        1.1084020000
   18       -1.6423290000
   19        0.7981990000
 Ene=          5.30500000
 Spin= Alpha
 Occup=        0.00000000
    1       -0.0000000000
    2       -0.0000000000
    3       -1.2700480000
    4       -0.0000000000
    5        0.0000000000
    6       -0.0000000000
    7        1.3703060000
    8        0.0000000000
    9       -0.0000000000
   10        0.0000000000
   11       -0.5240070000
   12        0.0000000000
   13        0.0000000000
   14       -0.0000000000
   15        0.0000000000
   16       -0.0000000000
   17       -0.0000000000
   18        0.0000000000
   19       -0.0000000000
 Ene=          5.42392000
 Spin= Alpha
 Occup=        0.00000000
    1        0.0044770000
    2        0.0109650000
    3        0.0000000000
    4        0.0000020000
    5        1.2726780000
    6       -0.0803560000
    7       -0.0000000000
    8       -0.0000020000
    9       -1.4123650000
   10        0.3317550000
   11       -0.0000000000
   12        0.0000010000
   13        0.6865560000
   14        0.2282160000
   15       -0.3531870000
   16        0.0195990000
   17        0.2282150000
   18       -0.3531870000
   19        0.0196000000
 Ene=          5.53941000
 Spin= Alpha
 Occup=        0.00000000
    1       -0.0000000000
    2       -0.0000000000
    3       -0.0000000000
    4        1.2826400000
    5       -0.0000020000
    6        0.0000000000
    7        0.0000000000
    8       -1.4759620000
    9        0.0000020000
   10       -0.0000000000
   11       -0.0000000000
   12        0.7997330000
   13       -0.0000010000
   14        0.2530430000
   15       -0.3015420000
   16       -0.1641800000
   17       -0.2530430000
   18        0.3015430000
   19        0.1641800000
 Ene=         51.42840000
 Spin= Alpha
 Occup=        0.00000000
    1       -2.2464450000
    2        2.3290400000
    3       -0.0000000000
    4        0.0000000000
    5        0.0045930000
    6       -0.2440980000
    7        0.0000000000
    8       -0.0000000000
    9       -0.0144810000
   10        0.2430230000
   11       -0.0000000000
   12        0.0000000000
   13        0.0520350000
   14        0.0047860000
   15       -0.0422790000
   16       -0.0304380000
   17        0.0047860000
   18       -0.0422790000
   19       -0.0304380000

