[Molden Format]
[Atoms] AU
O       1       1     0.00000000     0.00000000    -0.12580851
H       2       1     0.00000000     1.42518410     0.99849531
H       3       1     0.00000000    -1.42518221     0.99849720
[GTO]
  1 0
s  6 1.00
   8.5885000000E+03   1.8951500000E-03
   1.2972300000E+03   1.4385900000E-02
   2.9929600000E+02   7.0732000000E-02
   8.7377100000E+01   2.4000100000E-01
   2.5678900000E+01   5.9479700000E-01
   3.7400400000E+00   2.8080200000E-01
s  3 1.00
   4.2117500000E+01   1.1388900000E-01
   9.6283700000E+00   9.2081100000E-01
   2.8533200000E+00  -3.2744700000E-03
p  3 1.00
   4.2117500000E+01   3.6511400000E-02
   9.6283700000E+00   2.3715300000E-01
   2.8533200000E+00   8.1970200000E-01
s  1 1.00
   9.0566100000E-01   1.0000000000E+00
p  1 1.00
   9.0566100000E-01   1.0000000000E+00
s  1 1.00
   2.5561100000E-01   1.0000000000E+00
p  1 1.00
   2.5561100000E-01   1.0000000000E+00
 
  2 0
s  3 1.00
   3.3865000000E+01   2.5493800000E-02
   5.0947900000E+00   1.9037300000E-01
   1.1587900000E+00   8.5216100000E-01
s  1 1.00
   3.2584000000E-01   1.0000000000E+00
s  1 1.00
   1.0274100000E-01   1.0000000000E+00
 
  3 0
s  3 1.00
   3.3865000000E+01   2.5493800000E-02
   5.0947900000E+00   1.9037300000E-01
   1.1587900000E+00   8.5216100000E-01
s  1 1.00
   3.2584000000E-01   1.0000000000E+00
s  1 1.00
   1.0274100000E-01   1.0000000000E+00
 
[MO]
Ene=    -2.05546E+01
Spin= Alpha
Occup=  2.0000
   1       0.551453
   2       0.471684
   3      -0.000000
   4       0.000000
   5       0.002551
   6       0.005463
   7       0.000000
   8      -0.000000
   9      -0.000939
  10      -0.000135
  11      -0.000000
  12       0.000000
  13       0.000357
  14       0.000208
  15      -0.000120
  16       0.000100
  17       0.000208
  18      -0.000120
  19       0.000100
Ene=    -1.35823E+00
Spin= Alpha
Occup=  2.0000
   1       0.113169
   2       0.189888
   3      -0.000000
   4      -0.000000
   5      -0.041869
   6      -0.542795
   7      -0.000000
   8      -0.000000
   9      -0.093372
  10      -0.441304
  11       0.000000
  12      -0.000000
  13      -0.056366
  14      -0.097832
  15      -0.038589
  16       0.003825
  17      -0.097832
  18      -0.038589
  19       0.003825
Ene=    -7.08161E-01
Spin= Alpha
Occup=  2.0000
   1      -0.000000
   2      -0.000000
   3       0.000000
   4       0.221402
   5      -0.000000
   6       0.000000
   7       0.000000
   8       0.367878
   9      -0.000000
  10       0.000000
  11       0.000000
  12       0.225962
  13      -0.000000
  14       0.158505
  15       0.200906
  16       0.052342
  17      -0.158505
  18      -0.200906
  19      -0.052342
Ene=    -5.65515E-01
Spin= Alpha
Occup=  2.0000
   1       0.041301
   2       0.069853
   3       0.000000
   4       0.000000
   5       0.250778
   6      -0.213033
   7       0.000000
   8       0.000000
   9       0.380330
  10      -0.286977
  11       0.000000
  12       0.000000
  13       0.378220
  14       0.089389
  15       0.110463
  16       0.031396
  17       0.089389
  18       0.110463
  19       0.031396
Ene=    -5.04521E-01
Spin= Alpha
Occup=  2.0000
   1      -0.000000
   2      -0.000000
   3       0.293548
   4      -0.000000
   5      -0.000000
   6       0.000000
   7       0.440870
   8      -0.000000
   9      -0.000000
  10       0.000000
  11       0.486454
  12      -0.000000
  13      -0.000000
  14      -0.000000
  15      -0.000000
  16      -0.000000
  17      -0.000000
  18      -0.000000
  19      -0.000000
Ene=     1.40377E-01
Spin= Alpha
Occup=0.0000
   1       0.033361
   2       0.054565
   3       0.000000
   4      -0.000000
   5      -0.080022
   6      -0.105333
   7       0.000000
   8      -0.000000
   9      -0.133639
  10      -0.849697
  11       0.000000
  12      -0.000000
  13      -0.218264
  14       0.037191
  15      -0.042717
  16       0.827028
  17       0.037191
  18      -0.042717
  19       0.827027
Ene=     2.13082E-01
Spin= Alpha
Occup=0.0000
   1       0.000000
   2       0.000000
   3      -0.000000
   4       0.125227
   5      -0.000000
   6      -0.000000
   7      -0.000000
   8       0.145508
   9      -0.000000
  10      -0.000000
  11       0.000000
  12       0.522999
  13      -0.000000
  14      -0.025241
  15       0.098724
  16      -1.553641
  17       0.025241
  18      -0.098724
  19       1.553641
Ene=     5.54298E-01
Spin= Alpha
Occup=0.0000
   1       0.000000
   2       0.000000
   3       0.000000
   4      -0.128580
   5      -0.000000
   6      -0.000000
   7       0.000000
   8      -0.192265
   9      -0.000000
  10      -0.000001
  11      -0.000000
  12      -1.058660
  13      -0.000000
  14       0.086622
  15       1.423894
  16      -0.794654
  17      -0.086622
  18      -1.423891
  19       0.794652
Ene=     5.98483E-01
Spin= Alpha
Occup=0.0000
   1      -0.033624
   2      -0.058751
   3       0.000000
   4      -0.000000
   5       0.112221
   6       0.151542
   7       0.000000
   8      -0.000000
   9       0.188579
  10       1.162029
  11      -0.000000
  12      -0.000001
  13       0.972082
  14      -0.071394
  15      -1.711092
  16       0.645480
  17      -0.071394
  18      -1.711096
  19       0.645482
Ene=     9.99811E-01
Spin= Alpha
Occup=0.0000
   1      -0.000000
   2      -0.000000
   3      -0.240833
   4      -0.000000
   5      -0.000000
   6      -0.000000
   7      -0.836482
   8      -0.000000
   9      -0.000000
  10       0.000000
  11       1.136922
  12       0.000000
  13       0.000000
  14      -0.000000
  15      -0.000000
  16      -0.000000
  17      -0.000000
  18      -0.000000
  19       0.000000
Ene=     1.02644E+00
Spin= Alpha
Occup=0.0000
   1      -0.021169
   2      -0.037730
   3       0.000000
   4      -0.000000
   5      -0.225121
   6       0.144324
   7       0.000000
   8      -0.000001
   9      -0.837756
  10       0.354021
  11      -0.000000
  12       0.000001
  13       1.414659
  14      -0.049207
  15      -0.336736
  16      -0.062905
  17      -0.049207
  18      -0.336736
  19      -0.062905
Ene=     1.15089E+00
Spin= Alpha
Occup=0.0000
   1      -0.000000
   2      -0.000000
   3       0.000000
   4      -0.238442
   5       0.000000
   6       0.000000
   7       0.000000
   8      -0.907183
   9       0.000001
  10      -0.000000
  11      -0.000000
  12       1.695038
  13      -0.000001
  14      -0.025901
  15      -0.174960
  16      -0.749375
  17       0.025901
  18       0.174960
  19       0.749375
Ene=     1.43552E+00
Spin= Alpha
Occup=0.0000
   1      -0.117872
   2      -0.249193
   3      -0.000000
   4       0.000000
   5       0.046733
   6       1.818021
   7      -0.000000
   8       0.000000
   9       0.145714
  10      -2.887621
  11       0.000000
  12      -0.000001
  13      -0.807621
  14      -0.002800
  15       0.714314
  16       0.317700
  17      -0.002800
  18       0.714314
  19       0.317700
Ene=     2.46585E+00
Spin= Alpha
Occup=0.0000
   1      -0.008993
   2      -0.007632
   3       0.000000
   4       0.000000
   5       0.159415
   6      -0.115290
   7      -0.000000
   8      -0.000000
   9       0.017198
  10      -0.429032
  11      -0.000000
  12      -0.000000
  13      -0.375008
  14      -1.092492
  15       1.580586
  16      -0.495129
  17      -1.092491
  18       1.580585
  19      -0.495128
Ene=     2.49630E+00
Spin= Alpha
Occup=0.0000
   1       0.000000
   2       0.000000
   3       0.000000
   4       0.174715
   5      -0.000000
   6      -0.000000
   7      -0.000000
   8      -0.039881
   9      -0.000000
  10       0.000000
  11       0.000000
  12      -0.286007
  13       0.000000
  14      -1.108401
  15       1.642328
  16      -0.798199
  17       1.108402
  18      -1.642329
  19       0.798199
Ene=     5.30500E+00
Spin= Alpha
Occup=0.0000
   1      -0.000000
   2      -0.000000
   3      -1.270048
   4      -0.000000
   5       0.000000
   6      -0.000000
   7       1.370306
   8       0.000000
   9      -0.000000
  10       0.000000
  11      -0.524007
  12       0.000000
  13       0.000000
  14      -0.000000
  15       0.000000
  16      -0.000000
  17      -0.000000
  18       0.000000
  19      -0.000000
Ene=     5.42392E+00
Spin= Alpha
Occup=0.0000
   1       0.004477
   2       0.010965
   3       0.000000
   4       0.000002
   5       1.272678
   6      -0.080356
   7      -0.000000
   8      -0.000002
   9      -1.412365
  10       0.331755
  11      -0.000000
  12       0.000001
  13       0.686556
  14       0.228216
  15      -0.353187
  16       0.019599
  17       0.228215
  18      -0.353187
  19       0.019600
Ene=     5.53941E+00
Spin= Alpha
Occup=0.0000
   1      -0.000000
   2      -0.000000
   3      -0.000000
   4       1.282640
   5      -0.000002
   6       0.000000
   7       0.000000
   8      -1.475962
   9       0.000002
  10      -0.000000
  11      -0.000000
  12       0.799733
  13      -0.000001
  14       0.253043
  15      -0.301542
  16      -0.164180
  17      -0.253043
  18       0.301543
  19       0.164180
Ene=     5.14284E+01
Spin= Alpha
Occup=0.0000
   1      -2.246445
   2       2.329040
   3      -0.000000
   4       0.000000
   5       0.004593
   6      -0.244098
   7       0.000000
   8      -0.000000
   9      -0.014481
  10       0.243023
  11      -0.000000
  12       0.000000
  13       0.052035
  14       0.004786
  15      -0.042279
  16      -0.030438
  17       0.004786
  18      -0.042279
  19      -0.030438
