 Molden2AIM, Version 3.1.0 (02/25/2015)           Time: Wed May 25 16:41:56 2016
GAUSSIAN             19 MOL ORBITALS     36 PRIMITIVES        3 NUCLEI
  H    1    (CENTRE  1)   0.00000000  0.00000000 -0.12580851  CHARGE =  1.0
  H    2    (CENTRE  2)   0.00000000  1.42518410  0.99849531  CHARGE =  1.0
  H    3    (CENTRE  3)   0.00000000 -1.42518221  0.99849720  CHARGE =  1.0
CENTRE ASSIGNMENTS    1  1  1  1  1  1  1  1  1  1  1  1  1  1  1  1  1  1  1  1
CENTRE ASSIGNMENTS    1  1  1  1  1  1  2  2  2  2  2  3  3  3  3  3
TYPE ASSIGNMENTS      1  1  1  1  1  1  1  1  1  2  2  2  3  3  3  4  4  4  1  2
TYPE ASSIGNMENTS      3  4  1  2  3  4  1  1  1  1  1  1  1  1  1  1
EXPONENTS  0.8588500D+04 0.1297230D+04 0.2992960D+03 0.8737710D+02 0.2567890D+02
EXPONENTS  0.3740040D+01 0.4211750D+02 0.9628370D+01 0.2853320D+01 0.4211750D+02
EXPONENTS  0.9628370D+01 0.2853320D+01 0.4211750D+02 0.9628370D+01 0.2853320D+01
EXPONENTS  0.4211750D+02 0.9628370D+01 0.2853320D+01 0.9056610D+00 0.9056610D+00
EXPONENTS  0.9056610D+00 0.9056610D+00 0.2556110D+00 0.2556110D+00 0.2556110D+00
EXPONENTS  0.2556110D+00 0.3386500D+02 0.5094790D+01 0.1158790D+01 0.3258400D+00
EXPONENTS  0.1027410D+00 0.3386500D+02 0.5094790D+01 0.1158790D+01 0.3258400D+00
EXPONENTS  0.1027410D+00
MO    1     MO 0.0        OCC NO =    2.0000000  ORB. ENERGY =  -20.554600
  0.66450797D+00  0.12221328D+01  0.20003696D+01  0.26957517D+01  0.26666726D+01
  0.29680827D+00  0.63298002D+00  0.16919844D+01 -0.24166578D-02 -0.00000000D+00
 -0.00000000D+00 -0.00000000D+00  0.00000000D+00  0.00000000D+00  0.00000000D+00
  0.14244829D-01  0.14625816D-01  0.11053368D-01  0.36146441D-02  0.00000000D+00
 -0.00000000D+00 -0.11825316D-02 -0.34588244D-04 -0.00000000D+00  0.00000000D+00
  0.92487434D-04  0.53054419D-04  0.95702602D-04  0.14109086D-03 -0.36884562D-04
  0.12933556D-04  0.53054419D-04  0.95702602D-04  0.14109086D-03 -0.36884562D-04
  0.12933556D-04
MO    2     MO 0.0        OCC NO =    2.0000000  ORB. ENERGY =   -1.358230
  0.13637010D+00  0.25080568D+00  0.41051517D+00  0.55322126D+00  0.54725366D+00
  0.60910894D-01  0.25482168D+00  0.68114996D+00 -0.97288506D-03 -0.00000000D+00
 -0.00000000D+00 -0.00000000D+00 -0.00000000D+00 -0.00000000D+00 -0.00000000D+00
 -0.23379723D+00 -0.24005029D+00 -0.18141648D+00 -0.35914529D+00 -0.00000000D+00
 -0.00000000D+00 -0.11758822D+00 -0.11306615D+00  0.00000000D+00 -0.00000000D+00
 -0.14602652D-01 -0.24953942D-01 -0.45013351D-01 -0.66361544D-01 -0.11861153D-01
  0.49470850D-03 -0.24953942D-01 -0.45013351D-01 -0.66361544D-01 -0.11861153D-01
  0.49470850D-03
MO    3     MO 0.0        OCC NO =    2.0000000  ORB. ENERGY =   -0.708161
 -0.00000000D+00 -0.00000000D+00 -0.00000000D+00 -0.00000000D+00 -0.00000000D+00
 -0.00000000D+00 -0.00000000D+00 -0.00000000D+00  0.00000000D+00  0.00000000D+00
  0.00000000D+00  0.00000000D+00  0.12363127D+01  0.12693786D+01  0.95932484D+00
 -0.00000000D+00 -0.00000000D+00 -0.00000000D+00  0.00000000D+00  0.00000000D+00
  0.46328793D+00 -0.00000000D+00  0.00000000D+00  0.00000000D+00  0.58539623D-01
 -0.00000000D+00  0.40429763D-01  0.72929524D-01  0.10751734D+00  0.61752749D-01
  0.67696817D-02 -0.40429763D-01 -0.72929524D-01 -0.10751734D+00 -0.61752749D-01
 -0.67696817D-02
MO    4     MO 0.0        OCC NO =    2.0000000  ORB. ENERGY =   -0.565515
  0.49768237D-01  0.91531473D-01  0.14981742D+00  0.20189797D+00  0.19972009D+00
  0.22229416D-01  0.93739778D-01  0.25057070D+00 -0.35788960D-03  0.00000000D+00
  0.00000000D+00  0.00000000D+00  0.00000000D+00  0.00000000D+00  0.00000000D+00
  0.14003487D+01  0.14378020D+01  0.10866097D+01 -0.14095524D+00  0.00000000D+00
  0.00000000D+00  0.47896938D+00 -0.73526152D-01  0.00000000D+00  0.00000000D+00
  0.97984866D-01  0.22800391D-01  0.41128653D-01  0.60634476D-01  0.33953162D-01
  0.40606191D-02  0.22800391D-01  0.41128653D-01  0.60634476D-01  0.33953162D-01
  0.40606191D-02
MO    5     MO 0.0        OCC NO =    2.0000000  ORB. ENERGY =   -0.504521
 -0.00000000D+00 -0.00000000D+00 -0.00000000D+00 -0.00000000D+00 -0.00000000D+00
 -0.00000000D+00 -0.00000000D+00 -0.00000000D+00  0.00000000D+00  0.16391772D+01
  0.16830180D+01  0.12719302D+01 -0.00000000D+00 -0.00000000D+00 -0.00000000D+00
 -0.00000000D+00 -0.00000000D+00 -0.00000000D+00  0.00000000D+00  0.55521056D+00
 -0.00000000D+00 -0.00000000D+00  0.00000000D+00  0.12602488D+00 -0.00000000D+00
 -0.00000000D+00 -0.00000000D+00 -0.00000000D+00 -0.00000000D+00 -0.00000000D+00
 -0.00000000D+00 -0.00000000D+00 -0.00000000D+00 -0.00000000D+00 -0.00000000D+00
 -0.00000000D+00
MO    6     MO 0.0        OCC NO =    0.0000000  ORB. ENERGY =    0.140377
  0.40200435D-01  0.73934807D-01  0.12101544D+00  0.16308366D+00  0.16132447D+00
  0.17955874D-01  0.73223927D-01  0.19573089D+00 -0.27956202D-03  0.00000000D+00
  0.00000000D+00  0.00000000D+00 -0.00000000D+00 -0.00000000D+00 -0.00000000D+00
 -0.44684425D+00 -0.45879539D+00 -0.34673170D+00 -0.69694546D-01  0.00000000D+00
 -0.00000000D+00 -0.16829856D+00 -0.21770020D+00  0.00000000D+00 -0.00000000D+00
 -0.56545314D-01  0.94862831D-02  0.17111901D-01  0.25227453D-01 -0.13129982D-01
  0.10696413D+00  0.94862831D-02  0.17111901D-01  0.25227453D-01 -0.13129982D-01
  0.10696400D+00
MO    7     MO 0.0        OCC NO =    0.0000000  ORB. ENERGY =    0.213082
  0.00000000D+00  0.00000000D+00  0.00000000D+00  0.00000000D+00  0.00000000D+00
  0.00000000D+00  0.00000000D+00  0.00000000D+00 -0.00000000D+00 -0.00000000D+00
 -0.00000000D+00 -0.00000000D+00  0.69926976D+00  0.71797219D+00  0.54260292D+00
 -0.00000000D+00 -0.00000000D+00 -0.00000000D+00 -0.00000000D+00 -0.00000000D+00
  0.18324581D+00 -0.00000000D+00 -0.00000000D+00  0.00000000D+00  0.13549254D+00
 -0.00000000D+00 -0.64382047D-02 -0.11613603D-01 -0.17121512D-01  0.30344930D-01
 -0.20094102D+00  0.64382047D-02  0.11613603D-01  0.17121512D-01 -0.30344930D-01
  0.20094102D+00
MO    8     MO 0.0        OCC NO =    0.0000000  ORB. ENERGY =    0.554298
  0.00000000D+00  0.00000000D+00  0.00000000D+00  0.00000000D+00  0.00000000D+00
  0.00000000D+00  0.00000000D+00  0.00000000D+00 -0.00000000D+00  0.00000000D+00
  0.00000000D+00  0.00000000D+00 -0.71799297D+00 -0.73719616D+00 -0.55713132D+00
 -0.00000000D+00 -0.00000000D+00 -0.00000000D+00 -0.00000000D+00  0.00000000D+00
 -0.24212933D+00 -0.00000000D+00 -0.25620922D-06 -0.00000000D+00 -0.27426540D+00
 -0.00000000D+00  0.22094615D-01  0.39855533D-01  0.58757560D-01  0.43766423D+00
 -0.10277702D+00 -0.22094615D-01 -0.39855533D-01 -0.58757560D-01 -0.43766330D+00
  0.10277676D+00
MO    9     MO 0.0        OCC NO =    0.0000000  ORB. ENERGY =    0.598483
 -0.40517353D-01 -0.74517669D-01 -0.12196946D+00 -0.16436932D+00 -0.16259627D+00
 -0.18097429D-01 -0.78841362D-01 -0.21074655D+00  0.30100886D-03  0.00000000D+00
  0.00000000D+00  0.00000000D+00 -0.00000000D+00 -0.00000000D+00 -0.00000000D+00
  0.62664403D+00  0.64340403D+00  0.48624851D+00  0.10026916D+00  0.00000000D+00
 -0.00000000D+00  0.23748736D+00  0.29772254D+00 -0.00000000D+00 -0.25906844D-06
  0.25183577D+00 -0.18210419D-01 -0.32848998D-01 -0.48428081D-01 -0.52594066D+00
  0.83483515D-01 -0.18210419D-01 -0.32848998D-01 -0.48428081D-01 -0.52594189D+00
  0.83483773D-01
MO   10     MO 0.0        OCC NO =    0.0000000  ORB. ENERGY =    0.999811
 -0.00000000D+00 -0.00000000D+00 -0.00000000D+00 -0.00000000D+00 -0.00000000D+00
 -0.00000000D+00 -0.00000000D+00 -0.00000000D+00  0.00000000D+00 -0.13448157D+01
 -0.13807837D+01 -0.10435185D+01 -0.00000000D+00 -0.00000000D+00 -0.00000000D+00
 -0.00000000D+00 -0.00000000D+00 -0.00000000D+00 -0.00000000D+00 -0.10534254D+01
 -0.00000000D+00 -0.00000000D+00  0.00000000D+00  0.29454061D+00  0.00000000D+00
  0.00000000D+00 -0.00000000D+00 -0.00000000D+00 -0.00000000D+00 -0.00000000D+00
 -0.00000000D+00 -0.00000000D+00 -0.00000000D+00 -0.00000000D+00 -0.00000000D+00
  0.00000000D+00
MO   11     MO 0.0        OCC NO =    0.0000000  ORB. ENERGY =    1.026440
 -0.25508918D-01 -0.46914839D-01 -0.76789542D-01 -0.10348365D+00 -0.10236737D+00
 -0.11393780D-01 -0.50632068D-01 -0.13534182D+00  0.19330844D-03  0.00000000D+00
  0.00000000D+00  0.00000000D+00 -0.00000000D+00 -0.00000000D+00 -0.00000000D+00
 -0.12570796D+01 -0.12907010D+01 -0.97543910D+00  0.95493299D-01  0.00000000D+00
 -0.12593521D-05 -0.10550298D+01  0.90703443D-01 -0.00000000D+00  0.25906844D-06
  0.36649350D+00 -0.12551196D-01 -0.22640567D-01 -0.33378163D-01 -0.10350300D+00
 -0.81358531D-02 -0.12551196D-01 -0.22640567D-01 -0.33378163D-01 -0.10350300D+00
 -0.81358531D-02
MO   12     MO 0.0        OCC NO =    0.0000000  ORB. ENERGY =    1.150890
 -0.00000000D+00 -0.00000000D+00 -0.00000000D+00 -0.00000000D+00 -0.00000000D+00
 -0.00000000D+00 -0.00000000D+00 -0.00000000D+00  0.00000000D+00  0.00000000D+00
  0.00000000D+00  0.00000000D+00 -0.13314643D+01 -0.13670752D+01 -0.10331584D+01
  0.00000000D+00  0.00000000D+00  0.00000000D+00  0.00000000D+00  0.00000000D+00
 -0.11424628D+01  0.12593521D-05 -0.00000000D+00 -0.00000000D+00  0.43913085D+00
 -0.25906844D-06 -0.66065505D-02 -0.11917274D-01 -0.17569204D-01 -0.53777692D-01
 -0.96920832D-01  0.66065505D-02  0.11917274D-01  0.17569204D-01  0.53777692D-01
  0.96920832D-01
MO   13     MO 0.0        OCC NO =    0.0000000  ORB. ENERGY =    1.435520
 -0.14203728D+00 -0.26122849D+00 -0.42757508D+00 -0.57621165D+00 -0.56999605D+00
 -0.63442187D-01 -0.33440649D+00 -0.89388378D+00  0.12767323D-02 -0.00000000D+00
 -0.00000000D+00 -0.00000000D+00  0.00000000D+00  0.00000000D+00  0.00000000D+00
  0.26095789D+00  0.26793738D+00  0.20249197D+00  0.12029103D+01 -0.00000000D+00
  0.00000000D+00  0.18350523D+00 -0.73983511D+00  0.00000000D+00 -0.25906844D-06
 -0.20922911D+00 -0.71419410D-03 -0.12883043D-02 -0.18993001D-02  0.21955966D+00
  0.41089906D-01 -0.71419410D-03 -0.12883043D-02 -0.18993001D-02  0.21955966D+00
  0.41089906D-01
MO   14     MO 0.0        OCC NO =    0.0000000  ORB. ENERGY =    2.465850
 -0.10836681D-01 -0.19930330D-01 -0.32621680D-01 -0.43961852D-01 -0.43487635D-01
 -0.48402978D-02 -0.10241822D-01 -0.27376856D-01  0.39102307D-04  0.00000000D+00
  0.00000000D+00  0.00000000D+00  0.00000000D+00  0.00000000D+00  0.00000000D+00
  0.89017616D+00  0.91398449D+00  0.69073798D+00 -0.76282687D-01 -0.00000000D+00
 -0.00000000D+00  0.21658337D-01 -0.10992195D+00 -0.00000000D+00 -0.00000000D+00
 -0.97152738D-01 -0.27866119D+00 -0.50266503D+00 -0.74106075D+00  0.48582686D+00
 -0.64037784D-01 -0.27866094D+00 -0.50266457D+00 -0.74106008D+00  0.48582655D+00
 -0.64037655D-01
MO   15     MO 0.0        OCC NO =    0.0000000  ORB. ENERGY =    2.496300
  0.00000000D+00  0.00000000D+00  0.00000000D+00  0.00000000D+00  0.00000000D+00
  0.00000000D+00  0.00000000D+00  0.00000000D+00 -0.00000000D+00  0.00000000D+00
  0.00000000D+00  0.00000000D+00  0.97561162D+00  0.10017050D+01  0.75703219D+00
 -0.00000000D+00 -0.00000000D+00 -0.00000000D+00 -0.00000000D+00 -0.00000000D+00
 -0.50224221D-01 -0.00000000D+00  0.00000000D+00  0.00000000D+00 -0.74095388D-01
  0.00000000D+00 -0.28271909D+00 -0.50998490D+00 -0.75185217D+00  0.50480458D+00
 -0.10323551D+00  0.28271934D+00  0.50998536D+00  0.75185285D+00 -0.50480489D+00
  0.10323551D+00
MO   16     MO 0.0        OCC NO =    0.0000000  ORB. ENERGY =    5.305000
 -0.00000000D+00 -0.00000000D+00 -0.00000000D+00 -0.00000000D+00 -0.00000000D+00
 -0.00000000D+00 -0.00000000D+00 -0.00000000D+00  0.00000000D+00 -0.70919703D+01
 -0.72816496D+01 -0.55030605D+01 -0.00000000D+00 -0.00000000D+00 -0.00000000D+00
  0.00000000D+00  0.00000000D+00  0.00000000D+00 -0.00000000D+00  0.17256977D+01
  0.00000000D+00 -0.00000000D+00  0.00000000D+00 -0.13575368D+00  0.00000000D+00
  0.00000000D+00 -0.00000000D+00 -0.00000000D+00 -0.00000000D+00  0.00000000D+00
 -0.00000000D+00 -0.00000000D+00 -0.00000000D+00 -0.00000000D+00  0.00000000D+00
 -0.00000000D+00
MO   17     MO 0.0        OCC NO =    0.0000000  ORB. ENERGY =    5.423920
  0.53948427D-02  0.99219488D-02  0.16240105D-01  0.21885601D-01  0.21649521D-01
  0.24096534D-02  0.14714567D-01  0.39332708D-01 -0.56178825D-04  0.00000000D+00
  0.00000000D+00  0.00000000D+00  0.11168035D-04  0.11466731D-04  0.86659095D-05
  0.71066563D+01  0.72967284D+01  0.55144562D+01 -0.53168285D-01 -0.00000000D+00
 -0.25187042D-05 -0.17786648D+01  0.84998688D-01 -0.00000000D+00  0.25906844D-06
  0.17786499D+00  0.58210900D-01  0.10500416D+00  0.15480381D+00 -0.10855957D+00
  0.25348476D-02  0.58210645D-01  0.10500370D+00  0.15480313D+00 -0.10855957D+00
  0.25349769D-02
MO   18     MO 0.0        OCC NO =    0.0000000  ORB. ENERGY =    5.539410
 -0.00000000D+00 -0.00000000D+00 -0.00000000D+00 -0.00000000D+00 -0.00000000D+00
 -0.00000000D+00 -0.00000000D+00 -0.00000000D+00  0.00000000D+00 -0.00000000D+00
 -0.00000000D+00 -0.00000000D+00  0.71622843D+01  0.73538442D+01  0.55576211D+01
 -0.11168035D-04 -0.11466731D-04 -0.86659095D-05  0.00000000D+00  0.00000000D+00
 -0.18587558D+01  0.25187042D-05 -0.00000000D+00 -0.00000000D+00  0.20718558D+00
 -0.25906844D-06  0.64543506D-01  0.11642728D+00  0.17164449D+00 -0.92685373D-01
 -0.21234312D-01 -0.64543506D-01 -0.11642728D+00 -0.17164449D+00  0.92685680D-01
  0.21234312D-01
MO   19     MO 0.0        OCC NO =    0.0000000  ORB. ENERGY =   51.428400
 -0.27069952D+01 -0.49785821D+01 -0.81488725D+01 -0.10981639D+02 -0.10863180D+02
 -0.12091030D+01  0.31254734D+01  0.83545327D+01 -0.11932762D-01 -0.00000000D+00
 -0.00000000D+00 -0.00000000D+00  0.00000000D+00  0.00000000D+00  0.00000000D+00
  0.25647393D-01  0.26333349D-01  0.19901261D-01 -0.16150968D+00  0.00000000D+00
 -0.00000000D+00 -0.18236678D-01  0.62264732D-01 -0.00000000D+00  0.00000000D+00
  0.13480626D-01  0.12207618D-02  0.22020801D-02  0.32464464D-02 -0.12995353D-01
 -0.39367156D-02  0.12207618D-02  0.22020801D-02  0.32464464D-02 -0.12995353D-01
 -0.39367156D-02
END DATA
 THE  HF ENERGY =    -76.008843007734 THE VIRIAL(-V/T)=   1.99914855


 $MOSPIN $END
 3 3 3 3 3 3 3 3 3 3 3 3 3 3 3 3 3 3 3


