[Molden Format]
[Title]
 Molden2AIM, Version 3.1.0 (02/25/2015)           Time: Wed May 25 17:47:09 2016

[Atoms] AU
O       1       1     0.00000000     0.00000000    -0.12580851
H       2       1     0.00000000     1.42518410     0.99849531
H       3       1     0.00000000    -1.42518221     0.99849720
[GTO]
    1 0
 S   9 1.0
    0.6142000000D+05      0.9073892679D-04
    0.9199000000D+04      0.7037307878D-03
    0.2091000000D+04      0.3694082531D-02
    0.5909000000D+03      0.1534294431D-01
    0.1923000000D+03      0.5285340844D-01
    0.6932000000D+02      0.1471190548D+00
    0.2697000000D+02      0.3077642591D+00
    0.1110000000D+02      0.4017798693D+00
    0.4682000000D+01      0.2187614704D+00
 S   9 1.0
    0.6142000000D+05     -0.5610638588D-04
    0.9199000000D+04     -0.4460457677D-03
    0.2091000000D+04     -0.2325609695D-02
    0.5909000000D+03     -0.9841060083D-02
    0.1923000000D+03     -0.3410146134D-01
    0.6932000000D+02     -0.1017236829D+00
    0.2697000000D+02     -0.2328190588D+00
    0.1110000000D+02     -0.4266610114D+00
    0.4682000000D+01     -0.3235402795D+00
 S   1 1.0
    0.1428000000D+01      0.1000000000D+01
 S   1 1.0
    0.5547000000D+00      0.1000000000D+01
 S   1 1.0
    0.2067000000D+00      0.1000000000D+01
 P   3 1.0
    0.6342000000D+02      0.3132750252D-01
    0.1466000000D+02      0.2166542485D+00
    0.4459000000D+01      0.8352428422D+00
 P   1 1.0
    0.1531000000D+01      0.1000000000D+01
 P   1 1.0
    0.5302000000D+00      0.1000000000D+01
 P   1 1.0
    0.1750000000D+00      0.1000000000D+01
 D   1 1.0
    0.3775000000D+01      0.1000000000D+01
 D   1 1.0
    0.1300000000D+01      0.1000000000D+01
 D   1 1.0
    0.4440000000D+00      0.1000000000D+01
 F   1 1.0
    0.2666000000D+01      0.1000000000D+01
 F   1 1.0
    0.8590000000D+00      0.1000000000D+01
 G   1 1.0
    0.1846000000D+01      0.1000000000D+01

    2 0
 S   3 1.0
    0.8264000000D+02      0.2295075779D-01
    0.1241000000D+02      0.1755401181D+00
    0.2824000000D+01      0.8647035510D+00
 S   1 1.0
    0.7977000000D+00      0.1000000000D+01
 S   1 1.0
    0.2581000000D+00      0.1000000000D+01
 S   1 1.0
    0.8989000000D-01      0.1000000000D+01
 P   1 1.0
    0.2292000000D+01      0.1000000000D+01
 P   1 1.0
    0.8380000000D+00      0.1000000000D+01
 P   1 1.0
    0.2920000000D+00      0.1000000000D+01
 D   1 1.0
    0.2062000000D+01      0.1000000000D+01
 D   1 1.0
    0.6620000000D+00      0.1000000000D+01
 F   1 1.0
    0.1397000000D+01      0.1000000000D+01

    3 0
 S   3 1.0
    0.8264000000D+02      0.2295075779D-01
    0.1241000000D+02      0.1755401181D+00
    0.2824000000D+01      0.8647035510D+00
 S   1 1.0
    0.7977000000D+00      0.1000000000D+01
 S   1 1.0
    0.2581000000D+00      0.1000000000D+01
 S   1 1.0
    0.8989000000D-01      0.1000000000D+01
 P   1 1.0
    0.2292000000D+01      0.1000000000D+01
 P   1 1.0
    0.8380000000D+00      0.1000000000D+01
 P   1 1.0
    0.2920000000D+00      0.1000000000D+01
 D   1 1.0
    0.2062000000D+01      0.1000000000D+01
 D   1 1.0
    0.6620000000D+00      0.1000000000D+01
 F   1 1.0
    0.1397000000D+01      0.1000000000D+01


[MO]
 Ene=        -20.56180000
 Spin= Alpha
 Occup=        2.00000000
    1       -0.9939670000
    2       -0.0032010000
    3       -0.0208310000
    4        0.0029560000
    5        0.0001610000
    6        0.0000000000
    7       -0.0000000000
    8       -0.0022230000
    9        0.0000000000
   10        0.0000000000
   11        0.0031020000
   12       -0.0000000000
   13       -0.0000000000
   14       -0.0003170000
   15        0.0000000000
   16       -0.0000000000
   17       -0.0000430000
   18        0.0016000000
   19        0.0008840000
   20        0.0011750000
   21       -0.0000000000
   22        0.0000000000
   23        0.0000000000
   24       -0.0036510000
   25       -0.0004500000
   26       -0.0017950000
   27        0.0000000000
   28       -0.0000000000
   29       -0.0000000000
   30       -0.0003760000
   31       -0.0002800000
   32       -0.0006300000
   33        0.0000000000
   34       -0.0000000000
   35       -0.0000000000
   36        0.0000000000
   37       -0.0000000000
   38       -0.0011120000
   39        0.0000000000
   40       -0.0000000000
   41       -0.0005230000
   42        0.0000000000
   43       -0.0000000000
   44       -0.0005080000
   45       -0.0000000000
   46        0.0000000000
   47        0.0000000000
   48        0.0000110000
   49        0.0000000000
   50        0.0000000000
   51        0.0000320000
   52        0.0000000000
   53       -0.0000000000
   54        0.0001810000
   55        0.0000000000
   56        0.0026090000
   57       -0.0000000000
   58        0.0000000000
   59        0.0010580000
   60        0.0000000000
   61        0.0012710000
   62       -0.0000000000
   63       -0.0000000000
   64       -0.0000000000
   65        0.0000000000
   66        0.0010590000
   67        0.0000000000
   68        0.0008880000
   69        0.0000000000
   70        0.0017530000
   71       -0.0000210000
   72       -0.0005890000
   73        0.0000860000
   74       -0.0000390000
   75       -0.0000000000
   76        0.0000370000
   77       -0.0001330000
   78        0.0000000000
   79        0.0003930000
   80        0.0009420000
   81        0.0000000000
   82        0.0000540000
   83        0.0000590000
   84        0.0000310000
   85       -0.0000990000
   86       -0.0000210000
   87        0.0000000000
   88       -0.0000000000
   89       -0.0001080000
   90        0.0000560000
   91       -0.0002100000
   92       -0.0001920000
   93       -0.0000000000
   94       -0.0000000000
   95       -0.0003230000
   96       -0.0000000000
   97        0.0000830000
   98       -0.0002590000
   99       -0.0000000000
  100       -0.0000420000
  101       -0.0001260000
  102       -0.0000000000
  103        0.0000680000
  104        0.0000360000
  105        0.0000000000
  106       -0.0000210000
  107       -0.0005890000
  108        0.0000860000
  109       -0.0000390000
  110       -0.0000000000
  111       -0.0000370000
  112       -0.0001330000
  113        0.0000000000
  114       -0.0003930000
  115        0.0009420000
  116       -0.0000000000
  117       -0.0000540000
  118        0.0000590000
  119        0.0000310000
  120       -0.0000990000
  121       -0.0000210000
  122        0.0000000000
  123        0.0000000000
  124        0.0001080000
  125        0.0000560000
  126       -0.0002100000
  127       -0.0001920000
  128        0.0000000000
  129       -0.0000000000
  130        0.0003230000
  131       -0.0000000000
  132       -0.0000830000
  133       -0.0002590000
  134       -0.0000000000
  135        0.0000420000
  136       -0.0001260000
  137       -0.0000000000
  138       -0.0000680000
  139        0.0000360000
  140       -0.0000000000
 Ene=         -1.34921000
 Spin= Alpha
 Occup=        2.00000000
    1        0.0094980000
    2       -0.3063490000
    3       -0.2538970000
    4       -0.4741300000
    5       -0.1852490000
    6       -0.0000000000
    7       -0.0000000000
    8       -0.0224660000
    9        0.0000000000
   10       -0.0000000000
   11       -0.0386240000
   12       -0.0000000000
   13       -0.0000000000
   14       -0.0581290000
   15        0.0000000000
   16       -0.0000000000
   17       -0.0060210000
   18       -0.0029920000
   19       -0.0030920000
   20       -0.0033900000
   21       -0.0000000000
   22       -0.0000000000
   23        0.0000000000
   24        0.0097880000
   25       -0.0074500000
   26       -0.0021690000
   27       -0.0000000000
   28        0.0000000000
   29        0.0000000000
   30       -0.0062120000
   31       -0.0113110000
   32       -0.0131110000
   33        0.0000000000
   34       -0.0000000000
   35       -0.0000000000
   36       -0.0000000000
   37       -0.0000000000
   38       -0.0011010000
   39        0.0000000000
   40        0.0000000000
   41       -0.0000370000
   42       -0.0000000000
   43        0.0000000000
   44       -0.0020430000
   45        0.0000000000
   46        0.0000000000
   47        0.0000000000
   48        0.0026530000
   49        0.0000000000
   50        0.0000000000
   51        0.0024240000
   52        0.0000000000
   53        0.0000000000
   54       -0.0002240000
   55        0.0000000000
   56       -0.0066180000
   57        0.0000000000
   58       -0.0000000000
   59       -0.0023290000
   60       -0.0000000000
   61       -0.0028360000
   62        0.0000000000
   63       -0.0000000000
   64        0.0000000000
   65       -0.0000000000
   66       -0.0015580000
   67       -0.0000000000
   68       -0.0017580000
   69       -0.0000000000
   70       -0.0035010000
   71       -0.0362520000
   72       -0.0779600000
   73       -0.0460280000
   74       -0.0053560000
   75       -0.0000000000
   76        0.0081260000
   77        0.0050940000
   78        0.0000000000
   79        0.0013620000
   80        0.0034080000
   81        0.0000000000
   82        0.0069300000
   83        0.0035570000
   84       -0.0004320000
   85       -0.0030310000
   86       -0.0017730000
   87       -0.0000000000
   88       -0.0000000000
   89       -0.0020690000
   90       -0.0009180000
   91       -0.0025630000
   92       -0.0020200000
   93       -0.0000000000
   94       -0.0000000000
   95       -0.0013610000
   96       -0.0000000000
   97        0.0042730000
   98        0.0018300000
   99        0.0000000000
  100        0.0014440000
  101        0.0007380000
  102        0.0000000000
  103        0.0020250000
  104        0.0013320000
  105        0.0000000000
  106       -0.0362520000
  107       -0.0779600000
  108       -0.0460280000
  109       -0.0053560000
  110        0.0000000000
  111       -0.0081260000
  112        0.0050940000
  113       -0.0000000000
  114       -0.0013620000
  115        0.0034080000
  116        0.0000000000
  117       -0.0069300000
  118        0.0035570000
  119       -0.0004320000
  120       -0.0030310000
  121       -0.0017730000
  122        0.0000000000
  123        0.0000000000
  124        0.0020690000
  125       -0.0009180000
  126       -0.0025630000
  127       -0.0020200000
  128        0.0000000000
  129       -0.0000000000
  130        0.0013610000
  131        0.0000000000
  132       -0.0042730000
  133        0.0018300000
  134        0.0000000000
  135       -0.0014440000
  136        0.0007380000
  137        0.0000000000
  138       -0.0020250000
  139        0.0013320000
  140       -0.0000000000
 Ene=         -0.71116600
 Spin= Alpha
 Occup=        2.00000000
    1        0.0000000000
    2        0.0000000000
    3        0.0000000000
    4        0.0000000000
    5        0.0000000000
    6        0.0000000000
    7        0.1428060000
    8       -0.0000000000
    9       -0.0000000000
   10        0.2571790000
   11       -0.0000000000
   12        0.0000000000
   13        0.2821110000
   14       -0.0000000000
   15       -0.0000000000
   16        0.1108940000
   17       -0.0000000000
   18        0.0000000000
   19        0.0000000000
   20       -0.0000000000
   21       -0.0000000000
   22        0.0000000000
   23        0.0039830000
   24        0.0000000000
   25        0.0000000000
   26       -0.0000000000
   27        0.0000000000
   28       -0.0000000000
   29        0.0227390000
   30       -0.0000000000
   31        0.0000000000
   32       -0.0000000000
   33       -0.0000000000
   34       -0.0000000000
   35        0.0158500000
   36       -0.0000000000
   37        0.0050790000
   38       -0.0000000000
   39       -0.0000000000
   40        0.0002420000
   41       -0.0000000000
   42       -0.0000000000
   43        0.0026660000
   44       -0.0000000000
   45        0.0000000000
   46       -0.0000000000
   47        0.0112460000
   48       -0.0000000000
   49       -0.0000000000
   50        0.0015560000
   51       -0.0000000000
   52       -0.0000000000
   53        0.0034840000
   54       -0.0000000000
   55       -0.0000000000
   56       -0.0000000000
   57       -0.0000000000
   58        0.0000000000
   59       -0.0000000000
   60       -0.0013070000
   61        0.0000000000
   62       -0.0000000000
   63        0.0000000000
   64       -0.0000000000
   65        0.0000000000
   66       -0.0000000000
   67       -0.0020440000
   68       -0.0000000000
   69       -0.0027430000
   70        0.0000000000
   71        0.0554090000
   72        0.1395760000
   73        0.1806320000
   74        0.0417840000
   75       -0.0000000000
   76       -0.0083060000
   77       -0.0077600000
   78        0.0000000000
   79        0.0031840000
   80       -0.0066890000
   81        0.0000000000
   82       -0.0167480000
   83       -0.0192610000
   84        0.0003310000
   85        0.0022470000
   86        0.0027300000
   87       -0.0000000000
   88       -0.0000000000
   89        0.0028580000
   90       -0.0000580000
   91        0.0033040000
   92        0.0041760000
   93       -0.0000000000
   94       -0.0000000000
   95        0.0040660000
   96       -0.0000000000
   97       -0.0057010000
   98       -0.0033730000
   99        0.0000000000
  100       -0.0024020000
  101       -0.0010220000
  102       -0.0000000000
  103       -0.0037400000
  104       -0.0023610000
  105        0.0000000000
  106       -0.0554090000
  107       -0.1395760000
  108       -0.1806320000
  109       -0.0417840000
  110       -0.0000000000
  111       -0.0083060000
  112        0.0077600000
  113        0.0000000000
  114        0.0031840000
  115        0.0066890000
  116        0.0000000000
  117       -0.0167480000
  118        0.0192610000
  119       -0.0003310000
  120       -0.0022470000
  121       -0.0027300000
  122        0.0000000000
  123       -0.0000000000
  124        0.0028580000
  125        0.0000580000
  126       -0.0033040000
  127       -0.0041760000
  128        0.0000000000
  129       -0.0000000000
  130        0.0040660000
  131        0.0000000000
  132       -0.0057010000
  133        0.0033730000
  134        0.0000000000
  135       -0.0024020000
  136        0.0010220000
  137        0.0000000000
  138       -0.0037400000
  139        0.0023610000
  140       -0.0000000000
 Ene=         -0.58395600
 Spin= Alpha
 Occup=        2.00000000
    1       -0.0020510000
    2       -0.1089700000
    3       -0.0777570000
    4       -0.1702180000
    5       -0.2922600000
    6       -0.0000000000
    7        0.0000000000
    8        0.1569230000
    9        0.0000000000
   10        0.0000000000
   11        0.2917740000
   12        0.0000000000
   13        0.0000000000
   14        0.3139900000
   15       -0.0000000000
   16        0.0000000000
   17        0.2095130000
   18       -0.0031660000
   19       -0.0008220000
   20        0.0017300000
   21       -0.0000000000
   22        0.0000000000
   23        0.0000000000
   24       -0.0026980000
   25        0.0060120000
   26        0.0120770000
   27        0.0000000000
   28       -0.0000000000
   29        0.0000000000
   30        0.0061750000
   31        0.0250240000
   32        0.0414350000
   33       -0.0000000000
   34       -0.0000000000
   35        0.0000000000
   36       -0.0000000000
   37        0.0000000000
   38        0.0039250000
   39       -0.0000000000
   40        0.0000000000
   41        0.0007280000
   42       -0.0000000000
   43       -0.0000000000
   44        0.0030640000
   45       -0.0000000000
   46       -0.0000000000
   47        0.0000000000
   48        0.0257680000
   49       -0.0000000000
   50        0.0000000000
   51        0.0071780000
   52       -0.0000000000
   53        0.0000000000
   54        0.0153400000
   55       -0.0000000000
   56       -0.0012010000
   57        0.0000000000
   58        0.0000000000
   59       -0.0008980000
   60        0.0000000000
   61       -0.0006390000
   62       -0.0000000000
   63        0.0000000000
   64        0.0000000000
   65        0.0000000000
   66       -0.0013300000
   67        0.0000000000
   68        0.0005830000
   69       -0.0000000000
   70        0.0002470000
   71        0.0333330000
   72        0.0739770000
   73        0.1156980000
   74        0.0194690000
   75       -0.0000000000
   76       -0.0114210000
   77       -0.0006000000
   78        0.0000000000
   79        0.0183680000
   80        0.0080910000
   81        0.0000000000
   82       -0.0143140000
   83        0.0169440000
   84       -0.0000340000
   85        0.0024750000
   86       -0.0004160000
   87       -0.0000000000
   88       -0.0000000000
   89        0.0008530000
   90       -0.0020430000
   91       -0.0006830000
   92       -0.0050430000
   93       -0.0000000000
   94       -0.0000000000
   95       -0.0032330000
   96       -0.0000000000
   97       -0.0105530000
   98       -0.0002790000
   99       -0.0000000000
  100       -0.0039580000
  101       -0.0004560000
  102       -0.0000000000
  103       -0.0036220000
  104       -0.0005930000
  105        0.0000000000
  106        0.0333330000
  107        0.0739770000
  108        0.1156980000
  109        0.0194690000
  110        0.0000000000
  111        0.0114210000
  112       -0.0006000000
  113       -0.0000000000
  114       -0.0183680000
  115        0.0080910000
  116        0.0000000000
  117        0.0143140000
  118        0.0169440000
  119       -0.0000340000
  120        0.0024750000
  121       -0.0004160000
  122       -0.0000000000
  123       -0.0000000000
  124       -0.0008530000
  125       -0.0020430000
  126       -0.0006830000
  127       -0.0050430000
  128        0.0000000000
  129        0.0000000000
  130        0.0032330000
  131        0.0000000000
  132        0.0105530000
  133       -0.0002790000
  134        0.0000000000
  135        0.0039580000
  136       -0.0004560000
  137        0.0000000000
  138        0.0036220000
  139       -0.0005930000
  140        0.0000000000
 Ene=         -0.50870100
 Spin= Alpha
 Occup=        2.00000000
    1       -0.0000000000
    2       -0.0000000000
    3        0.0000000000
    4       -0.0000000000
    5       -0.0000000000
    6        0.1785960000
    7       -0.0000000000
    8        0.0000000000
    9        0.3428780000
   10        0.0000000000
   11        0.0000000000
   12        0.3263470000
   13       -0.0000000000
   14       -0.0000000000
   15        0.2959500000
   16       -0.0000000000
   17       -0.0000000000
   18        0.0000000000
   19        0.0000000000
   20        0.0000000000
   21        0.0000000000
   22        0.0025790000
   23        0.0000000000
   24       -0.0000000000
   25        0.0000000000
   26        0.0000000000
   27        0.0000000000
   28        0.0054290000
   29       -0.0000000000
   30        0.0000000000
   31        0.0000000000
   32        0.0000000000
   33        0.0000000000
   34        0.0154880000
   35       -0.0000000000
   36        0.0023850000
   37       -0.0000000000
   38        0.0000000000
   39        0.0026940000
   40       -0.0000000000
   41        0.0000000000
   42        0.0020880000
   43       -0.0000000000
   44        0.0000000000
   45       -0.0000000000
   46        0.0352610000
   47        0.0000000000
   48       -0.0000000000
   49        0.0211330000
   50        0.0000000000
   51       -0.0000000000
   52        0.0192850000
   53        0.0000000000
   54       -0.0000000000
   55       -0.0000000000
   56        0.0000000000
   57        0.0000000000
   58        0.0006990000
   59        0.0000000000
   60        0.0000000000
   61        0.0000000000
   62        0.0000000000
   63        0.0008740000
   64        0.0000000000
   65        0.0010970000
   66       -0.0000000000
   67       -0.0000000000
   68       -0.0000000000
   69       -0.0000000000
   70       -0.0000000000
   71       -0.0000000000
   72        0.0000000000
   73        0.0000000000
   74        0.0000000000
   75        0.0078000000
   76        0.0000000000
   77        0.0000000000
   78       -0.0003730000
   79       -0.0000000000
   80       -0.0000000000
   81        0.0313210000
   82       -0.0000000000
   83       -0.0000000000
   84       -0.0000000000
   85       -0.0000000000
   86        0.0000000000
   87       -0.0014790000
   88       -0.0012030000
   89        0.0000000000
   90        0.0000000000
   91        0.0000000000
   92        0.0000000000
   93       -0.0044010000
   94       -0.0029760000
   95        0.0000000000
   96        0.0047360000
   97        0.0000000000
   98        0.0000000000
   99        0.0032560000
  100        0.0000000000
  101        0.0000000000
  102        0.0028220000
  103        0.0000000000
  104        0.0000000000
  105        0.0009320000
  106       -0.0000000000
  107        0.0000000000
  108       -0.0000000000
  109        0.0000000000
  110        0.0078000000
  111        0.0000000000
  112       -0.0000000000
  113       -0.0003730000
  114       -0.0000000000
  115        0.0000000000
  116        0.0313210000
  117       -0.0000000000
  118        0.0000000000
  119       -0.0000000000
  120       -0.0000000000
  121       -0.0000000000
  122        0.0014790000
  123       -0.0012030000
  124       -0.0000000000
  125        0.0000000000
  126       -0.0000000000
  127        0.0000000000
  128        0.0044010000
  129       -0.0029760000
  130        0.0000000000
  131        0.0047360000
  132        0.0000000000
  133       -0.0000000000
  134        0.0032560000
  135        0.0000000000
  136       -0.0000000000
  137        0.0028220000
  138        0.0000000000
  139       -0.0000000000
  140       -0.0009320000
 Ene=          0.10448000
 Spin= Alpha
 Occup=        0.00000000
    1        0.0309370000
    2        0.1206330000
    3       -0.2894120000
    4        0.3135240000
    5        3.4516530000
    6       -0.0000000000
    7        0.0000000000
    8        0.0364270000
    9        0.0000000000
   10        0.0000000000
   11        0.0704550000
   12        0.0000000000
   13        0.0000000000
   14        0.2977840000
   15       -0.0000000000
   16        0.0000010000
   17        0.5508260000
   18       -0.0216230000
   19       -0.0163490000
   20       -0.0165960000
   21        0.0000000000
   22        0.0000000000
   23        0.0000000000
   24       -0.0420180000
   25       -0.0534860000
   26       -0.0519120000
   27       -0.0000000000
   28       -0.0000000000
   29       -0.0000000000
   30       -0.5575120000
   31       -0.3909510000
   32       -0.4220540000
   33        0.0000000000
   34        0.0000000000
   35       -0.0000000000
   36       -0.0000000000
   37        0.0000000000
   38       -0.0002450000
   39       -0.0000000000
   40        0.0000000000
   41       -0.0000800000
   42       -0.0000000000
   43       -0.0000000000
   44        0.0010660000
   45        0.0000000000
   46       -0.0000000000
   47        0.0000000000
   48        0.0044020000
   49       -0.0000000000
   50        0.0000000000
   51       -0.0126360000
   52       -0.0000000000
   53       -0.0000000000
   54        0.0360540000
   55        0.0000000000
   56       -0.0511830000
   57        0.0000000000
   58        0.0000000000
   59       -0.0238470000
   60       -0.0000000000
   61       -0.0258250000
   62        0.0000000000
   63        0.0000000000
   64        0.0000000000
   65        0.0000000000
   66       -0.0262010000
   67        0.0000000000
   68       -0.0140890000
   69       -0.0000000000
   70       -0.0330950000
   71       -0.0141490000
   72       -0.1665500000
   73       -0.1782770000
   74       -1.1703550000
   75       -0.0000000000
   76        0.0277840000
   77        0.0237160000
   78        0.0000000000
   79       -0.0650990000
   80       -0.0550030000
   81       -0.0000000000
   82        0.2262410000
   83        0.1592610000
   84       -0.0042040000
   85       -0.0068290000
   86       -0.0064780000
   87       -0.0000000000
   88       -0.0000000000
   89       -0.0021070000
   90       -0.0479350000
   91       -0.1011920000
   92       -0.0760390000
   93        0.0000000000
   94        0.0000000000
   95       -0.0422750000
   96       -0.0000000000
   97        0.0534630000
   98        0.0404820000
   99       -0.0000000000
  100        0.0207750000
  101        0.0167100000
  102       -0.0000000000
  103        0.0245420000
  104        0.0218700000
  105       -0.0000000000
  106       -0.0141490000
  107       -0.1665500000
  108       -0.1782780000
  109       -1.1703550000
  110       -0.0000000000
  111       -0.0277840000
  112        0.0237160000
  113        0.0000000000
  114        0.0650990000
  115       -0.0550030000
  116       -0.0000000000
  117       -0.2262410000
  118        0.1592620000
  119       -0.0042040000
  120       -0.0068290000
  121       -0.0064780000
  122        0.0000000000
  123       -0.0000000000
  124        0.0021070000
  125       -0.0479350000
  126       -0.1011920000
  127       -0.0760390000
  128       -0.0000000000
  129       -0.0000000000
  130        0.0422750000
  131       -0.0000000000
  132       -0.0534630000
  133        0.0404820000
  134       -0.0000000000
  135       -0.0207750000
  136        0.0167100000
  137       -0.0000000000
  138       -0.0245420000
  139        0.0218700000
  140        0.0000000000
 Ene=          0.16425500
 Spin= Alpha
 Occup=        0.00000000
    1       -0.0000000000
    2       -0.0000000000
    3        0.0000000000
    4       -0.0000000000
    5       -0.0000010000
    6       -0.0000000000
    7        0.0539060000
    8       -0.0000000000
    9        0.0000000000
   10        0.1296290000
   11       -0.0000000000
   12       -0.0000000000
   13        0.5007600000
   14       -0.0000010000
   15        0.0000000000
   16        1.1824400000
   17       -0.0000010000
   18        0.0000000000
   19        0.0000000000
   20       -0.0000000000
   21        0.0000000000
   22       -0.0000000000
   23        0.0079330000
   24        0.0000000000
   25       -0.0000000000
   26        0.0000000000
   27       -0.0000000000
   28        0.0000000000
   29       -0.0116710000
   30        0.0000000000
   31        0.0000000000
   32       -0.0000000000
   33       -0.0000000000
   34       -0.0000000000
   35        0.3312120000
   36       -0.0000000000
   37        0.0060900000
   38       -0.0000000000
   39       -0.0000000000
   40        0.0023700000
   41       -0.0000000000
   42       -0.0000000000
   43        0.0026000000
   44       -0.0000000000
   45        0.0000000000
   46        0.0000000000
   47        0.0832740000
   48       -0.0000000000
   49        0.0000000000
   50       -0.0043280000
   51        0.0000000000
   52        0.0000000000
   53        0.0728370000
   54        0.0000000000
   55       -0.0000000000
   56        0.0000000000
   57        0.0000000000
   58       -0.0000000000
   59        0.0000000000
   60        0.0084630000
   61       -0.0000000000
   62        0.0000000000
   63       -0.0000000000
   64        0.0000000000
   65       -0.0000000000
   66        0.0000000000
   67        0.0305280000
   68       -0.0000000000
   69        0.0264520000
   70       -0.0000000000
   71       -0.0138020000
   72       -0.3475220000
   73       -0.0931890000
   74       -2.2881780000
   75       -0.0000000000
   76        0.0037820000
   77       -0.0060500000
   78        0.0000000000
   79        0.0693280000
   80        0.0805010000
   81       -0.0000000000
   82        0.3559200000
   83        0.2869090000
   84       -0.0065690000
   85       -0.0126130000
   86       -0.0091620000
   87        0.0000000000
   88       -0.0000000000
   89       -0.0044800000
   90       -0.0973300000
   91       -0.1816090000
   92       -0.1467660000
   93       -0.0000000000
   94       -0.0000000000
   95       -0.0816140000
   96       -0.0000000000
   97        0.0238690000
   98        0.0016120000
   99       -0.0000000000
  100        0.0051150000
  101       -0.0015300000
  102       -0.0000000000
  103        0.0150970000
  104        0.0121280000
  105       -0.0000000000
  106        0.0138020000
  107        0.3475220000
  108        0.0931900000
  109        2.2881780000
  110       -0.0000000000
  111        0.0037820000
  112        0.0060500000
  113        0.0000000000
  114        0.0693280000
  115       -0.0805010000
  116        0.0000000000
  117        0.3559190000
  118       -0.2869100000
  119        0.0065690000
  120        0.0126130000
  121        0.0091620000
  122       -0.0000000000
  123       -0.0000000000
  124       -0.0044800000
  125        0.0973300000
  126        0.1816080000
  127        0.1467660000
  128       -0.0000000000
  129        0.0000000000
  130       -0.0816140000
  131       -0.0000000000
  132        0.0238690000
  133       -0.0016120000
  134       -0.0000000000
  135        0.0051150000
  136        0.0015300000
  137        0.0000000000
  138        0.0150970000
  139       -0.0121280000
  140       -0.0000000000
 Ene=          0.42991100
 Spin= Alpha
 Occup=        0.00000000
    1        0.0000000000
    2       -0.0000000000
    3       -0.0000000000
    4        0.0000000000
    5        0.0000020000
    6        0.0000000000
    7       -0.0534030000
    8       -0.0000000000
    9       -0.0000000000
   10       -0.3402840000
   11       -0.0000000000
   12        0.0000000000
   13        0.8801890000
   14        0.0000000000
   15        0.0000000000
   16       -1.7803280000
   17        0.0000010000
   18       -0.0000000000
   19       -0.0000000000
   20       -0.0000000000
   21        0.0000000000
   22       -0.0000000000
   23        0.0012220000
   24       -0.0000000000
   25        0.0000000000
   26       -0.0000000000
   27       -0.0000000000
   28       -0.0000000000
   29        0.0655070000
   30       -0.0000000000
   31       -0.0000010000