[Molden Format]
[Atoms] AU
O       1       1     0.00000000     0.00000000    -0.12580851
H       2       1     0.00000000     1.42518410     0.99849531
H       3       1     0.00000000    -1.42518221     0.99849720
[GTO]
  1 0
s  9 1.00
   6.1420000000E+04   9.0000000000E-05
   9.1990000000E+03   6.9800000000E-04
   2.0910000000E+03   3.6640000000E-03
   5.9090000000E+02   1.5218000000E-02
   1.9230000000E+02   5.2423000000E-02
   6.9320000000E+01   1.4592100000E-01
   2.6970000000E+01   3.0525800000E-01
   1.1100000000E+01   3.9850800000E-01
   4.6820000000E+00   2.1698000000E-01
s  9 1.00
   6.1420000000E+04  -2.0000000000E-05
   9.1990000000E+03  -1.5900000000E-04
   2.0910000000E+03  -8.2900000000E-04
   5.9090000000E+02  -3.5080000000E-03
   1.9230000000E+02  -1.2156000000E-02
   6.9320000000E+01  -3.6261000000E-02
   2.6970000000E+01  -8.2992000000E-02
   1.1100000000E+01  -1.5209000000E-01
   4.6820000000E+00  -1.1533100000E-01
s  1 1.00
   1.4280000000E+00   1.0000000000E+00
s  1 1.00
   5.5470000000E-01   1.0000000000E+00
s  1 1.00
   2.0670000000E-01   1.0000000000E+00
p  3 1.00
   6.3420000000E+01   6.0440000000E-03
   1.4660000000E+01   4.1799000000E-02
   4.4590000000E+00   1.6114300000E-01
p  1 1.00
   1.5310000000E+00   1.0000000000E+00
p  1 1.00
   5.3020000000E-01   1.0000000000E+00
p  1 1.00
   1.7500000000E-01   1.0000000000E+00
d  1 1.00
   3.7750000000E+00   1.0000000000E+00
d  1 1.00
   1.3000000000E+00   1.0000000000E+00
d  1 1.00
   4.4400000000E-01   1.0000000000E+00
f  1 1.00
   2.6660000000E+00   1.0000000000E+00
f  1 1.00
   8.5900000000E-01   1.0000000000E+00
g  1 1.00
   1.8460000000E+00   1.0000000000E+00
 
  2 0
s  3 1.00
   8.2640000000E+01   2.0060000000E-03
   1.2410000000E+01   1.5343000000E-02
   2.8240000000E+00   7.5579000000E-02
s  1 1.00
   7.9770000000E-01   1.0000000000E+00
s  1 1.00
   2.5810000000E-01   1.0000000000E+00
s  1 1.00
   8.9890000000E-02   1.0000000000E+00
p  1 1.00
   2.2920000000E+00   1.0000000000E+00
p  1 1.00
   8.3800000000E-01   1.0000000000E+00
p  1 1.00
   2.9200000000E-01   1.0000000000E+00
d  1 1.00
   2.0620000000E+00   1.0000000000E+00
d  1 1.00
   6.6200000000E-01   1.0000000000E+00
f  1 1.00
   1.3970000000E+00   1.0000000000E+00
 
  3 0
s  3 1.00
   8.2640000000E+01   2.0060000000E-03
   1.2410000000E+01   1.5343000000E-02
   2.8240000000E+00   7.5579000000E-02
s  1 1.00
   7.9770000000E-01   1.0000000000E+00
s  1 1.00
   2.5810000000E-01   1.0000000000E+00
s  1 1.00
   8.9890000000E-02   1.0000000000E+00
p  1 1.00
   2.2920000000E+00   1.0000000000E+00
p  1 1.00
   8.3800000000E-01   1.0000000000E+00
p  1 1.00
   2.9200000000E-01   1.0000000000E+00
d  1 1.00
   2.0620000000E+00   1.0000000000E+00
d  1 1.00
   6.6200000000E-01   1.0000000000E+00
f  1 1.00
   1.3970000000E+00   1.0000000000E+00
 
[MO]
Ene=    -2.05618E+01
Spin= Alpha
Occup=  2.0000
   1      -0.993967
   2      -0.003201
   3      -0.020831
   4       0.002956
   5       0.000161
   6       0.000000
   7      -0.000000
   8      -0.002223
   9       0.000000
  10       0.000000
  11       0.003102
  12      -0.000000
  13      -0.000000
  14      -0.000317
  15       0.000000
  16      -0.000000
  17      -0.000043
  18       0.001600
  19       0.000884
  20       0.001175
  21      -0.000000
  22       0.000000
  23       0.000000
  24      -0.003651
  25      -0.000450
  26      -0.001795
  27       0.000000
  28      -0.000000
  29      -0.000000
  30      -0.000376
  31      -0.000280
  32      -0.000630
  33       0.000000
  34      -0.000000
  35      -0.000000
  36       0.000000
  37      -0.000000
  38      -0.001112
  39       0.000000
  40      -0.000000
  41      -0.000523
  42       0.000000
  43      -0.000000
  44      -0.000508
  45      -0.000000
  46       0.000000
  47       0.000000
  48       0.000011
  49       0.000000
  50       0.000000
  51       0.000032
  52       0.000000
  53      -0.000000
  54       0.000181
  55       0.000000
  56       0.002609
  57      -0.000000
  58       0.000000
  59       0.001058
  60       0.000000
  61       0.001271
  62      -0.000000
  63      -0.000000
  64      -0.000000
  65       0.000000
  66       0.001059
  67       0.000000
  68       0.000888
  69       0.000000
  70       0.001753
  71      -0.000021
  72      -0.000589
  73       0.000086
  74      -0.000039
  75      -0.000000
  76       0.000037
  77      -0.000133
  78       0.000000
  79       0.000393
  80       0.000942
  81       0.000000
  82       0.000054
  83       0.000059
  84       0.000031
  85      -0.000099
  86      -0.000021
  87       0.000000
  88      -0.000000
  89      -0.000108
  90       0.000056
  91      -0.000210
  92      -0.000192
  93      -0.000000
  94      -0.000000
  95      -0.000323
  96      -0.000000
  97       0.000083
  98      -0.000259
  99      -0.000000
 100      -0.000042
 101      -0.000126
 102      -0.000000
 103       0.000068
 104       0.000036
 105       0.000000
 106      -0.000021
 107      -0.000589
 108       0.000086
 109      -0.000039
 110      -0.000000
 111      -0.000037
 112      -0.000133
 113       0.000000
 114      -0.000393
 115       0.000942
 116      -0.000000
 117      -0.000054
 118       0.000059
 119       0.000031
 120      -0.000099
 121      -0.000021
 122       0.000000
 123       0.000000
 124       0.000108
 125       0.000056
 126      -0.000210
 127      -0.000192
 128       0.000000
 129      -0.000000
 130       0.000323
 131      -0.000000
 132      -0.000083
 133      -0.000259
 134      -0.000000
 135       0.000042
 136      -0.000126
 137      -0.000000
 138      -0.000068
 139       0.000036
 140      -0.000000
Ene=    -1.34921E+00
Spin= Alpha
Occup=  2.0000
   1       0.009498
   2      -0.306349
   3      -0.253897
   4      -0.474130
   5      -0.185249
   6      -0.000000
   7      -0.000000
   8      -0.022466
   9       0.000000
  10      -0.000000
  11      -0.038624
  12      -0.000000
  13      -0.000000
  14      -0.058129
  15       0.000000
  16      -0.000000
  17      -0.006021
  18      -0.002992
  19      -0.003092
  20      -0.003390
  21      -0.000000
  22      -0.000000
  23       0.000000
  24       0.009788
  25      -0.007450
  26      -0.002169
  27      -0.000000
  28       0.000000
  29       0.000000
  30      -0.006212
  31      -0.011311
  32      -0.013111
  33       0.000000
  34      -0.000000
  35      -0.000000
  36      -0.000000
  37      -0.000000
  38      -0.001101
  39       0.000000
  40       0.000000
  41      -0.000037
  42      -0.000000
  43       0.000000
  44      -0.002043
  45       0.000000
  46       0.000000
  47       0.000000
  48       0.002653
  49       0.000000
  50       0.000000
  51       0.002424
  52       0.000000
  53       0.000000
  54      -0.000224
  55       0.000000
  56      -0.006618
  57       0.000000
  58      -0.000000
  59      -0.002329
  60      -0.000000
  61      -0.002836
  62       0.000000
  63      -0.000000
  64       0.000000
  65      -0.000000
  66      -0.001558
  67      -0.000000
  68      -0.001758
  69      -0.000000
  70      -0.003501
  71      -0.036252
  72      -0.077960
  73      -0.046028
  74      -0.005356
  75      -0.000000
  76       0.008126
  77       0.005094
  78       0.000000
  79       0.001362
  80       0.003408
  81       0.000000
  82       0.006930
  83       0.003557
  84      -0.000432
  85      -0.003031
  86      -0.001773
  87      -0.000000
  88      -0.000000
  89      -0.002069
  90      -0.000918
  91      -0.002563
  92      -0.002020
  93      -0.000000
  94      -0.000000
  95      -0.001361
  96      -0.000000
  97       0.004273
  98       0.001830
  99       0.000000
 100       0.001444
 101       0.000738
 102       0.000000
 103       0.002025
 104       0.001332
 105       0.000000
 106      -0.036252
 107      -0.077960
 108      -0.046028
 109      -0.005356
 110       0.000000
 111      -0.008126
 112       0.005094
 113      -0.000000
 114      -0.001362
 115       0.003408
 116       0.000000
 117      -0.006930
 118       0.003557
 119      -0.000432
 120      -0.003031
 121      -0.001773
 122       0.000000
 123       0.000000
 124       0.002069
 125      -0.000918
 126      -0.002563
 127      -0.002020
 128       0.000000
 129      -0.000000
 130       0.001361
 131       0.000000
 132      -0.004273
 133       0.001830
 134       0.000000
 135      -0.001444
 136       0.000738
 137       0.000000
 138      -0.002025
 139       0.001332
 140      -0.000000
Ene=    -7.11166E-01
Spin= Alpha
Occup=  2.0000
   1       0.000000
   2       0.000000
   3       0.000000
   4       0.000000
   5       0.000000
   6       0.000000
   7       0.142806
   8      -0.000000
   9      -0.000000
  10       0.257179
  11      -0.000000
  12       0.000000
  13       0.282111
  14      -0.000000
  15      -0.000000
  16       0.110894
  17      -0.000000
  18       0.000000
  19       0.000000
  20      -0.000000
  21      -0.000000
  22       0.000000
  23       0.003983
  24       0.000000
  25       0.000000
  26      -0.000000
  27       0.000000
  28      -0.000000
  29       0.022739
  30      -0.000000
  31       0.000000
  32      -0.000000
  33      -0.000000
  34      -0.000000
  35       0.015850
  36      -0.000000
  37       0.005079
  38      -0.000000
  39      -0.000000
  40       0.000242
  41      -0.000000
  42      -0.000000
  43       0.002666
  44      -0.000000
  45       0.000000
  46      -0.000000
  47       0.011246
  48      -0.000000
  49      -0.000000
  50       0.001556
  51      -0.000000
  52      -0.000000
  53       0.003484
  54      -0.000000
  55      -0.000000
  56      -0.000000
  57      -0.000000
  58       0.000000
  59      -0.000000
  60      -0.001307
  61       0.000000
  62      -0.000000
  63       0.000000
  64      -0.000000
  65       0.000000
  66      -0.000000
  67      -0.002044
  68      -0.000000
  69      -0.002743
  70       0.000000
  71       0.055409
  72       0.139576
  73       0.180632
  74       0.041784
  75      -0.000000
  76      -0.008306
  77      -0.007760
  78       0.000000
  79       0.003184
  80      -0.006689
  81       0.000000
  82      -0.016748
  83      -0.019261
  84       0.000331
  85       0.002247
  86       0.002730
  87      -0.000000
  88      -0.000000
  89       0.002858
  90      -0.000058
  91       0.003304
  92       0.004176
  93      -0.000000
  94      -0.000000
  95       0.004066
  96      -0.000000
  97      -0.005701
  98      -0.003373
  99       0.000000
 100      -0.002402
 101      -0.001022
 102      -0.000000
 103      -0.003740
 104      -0.002361
 105       0.000000
 106      -0.055409
 107      -0.139576
 108      -0.180632
 109      -0.041784
 110      -0.000000
 111      -0.008306
 112       0.007760
 113       0.000000
 114       0.003184
 115       0.006689
 116       0.000000
 117      -0.016748
 118       0.019261
 119      -0.000331
 120      -0.002247
 121      -0.002730
 122       0.000000
 123      -0.000000
 124       0.002858
 125       0.000058
 126      -0.003304
 127      -0.004176
 128       0.000000
 129      -0.000000
 130       0.004066
 131       0.000000
 132      -0.005701
 133       0.003373
 134       0.000000
 135      -0.002402
 136       0.001022
 137       0.000000
 138      -0.003740
 139       0.002361
 140      -0.000000
Ene=    -5.83956E-01
Spin= Alpha
Occup=  2.0000
   1      -0.002051
   2      -0.108970
   3      -0.077757
   4      -0.170218
   5      -0.292260
   6      -0.000000
   7       0.000000
   8       0.156923
   9       0.000000
  10       0.000000
  11       0.291774
  12       0.000000
  13       0.000000
  14       0.313990
  15      -0.000000
  16       0.000000
  17       0.209513
  18      -0.003166
  19      -0.000822
  20       0.001730
  21      -0.000000
  22       0.000000
  23       0.000000
  24      -0.002698
  25       0.006012
  26       0.012077
  27       0.000000
  28      -0.000000
  29       0.000000
  30       0.006175
  31       0.025024
  32       0.041435
  33      -0.000000
  34      -0.000000
  35       0.000000
  36      -0.000000
  37       0.000000
  38       0.003925
  39      -0.000000
  40       0.000000
  41       0.000728
  42      -0.000000
  43      -0.000000
  44       0.003064
  45      -0.000000
  46      -0.000000
  47       0.000000
  48       0.025768
  49      -0.000000
  50       0.000000
  51       0.007178
  52      -0.000000
  53       0.000000
  54       0.015340
  55      -0.000000
  56      -0.001201
  57       0.000000
  58       0.000000
  59      -0.000898
  60       0.000000
  61      -0.000639
  62      -0.000000
  63       0.000000
  64       0.000000
  65       0.000000
  66      -0.001330
  67       0.000000
  68       0.000583
  69      -0.000000
  70       0.000247
  71       0.033333
  72       0.073977
  73       0.115698
  74       0.019469
  75      -0.000000
  76      -0.011421
  77      -0.000600
  78       0.000000
  79       0.018368
  80       0.008091
  81       0.000000
  82      -0.014314
  83       0.016944
  84      -0.000034
  85       0.002475
  86      -0.000416
  87      -0.000000
  88      -0.000000
  89       0.000853
  90      -0.002043
  91      -0.000683
  92      -0.005043
  93      -0.000000
  94      -0.000000
  95      -0.003233
  96      -0.000000
  97      -0.010553
  98      -0.000279
  99      -0.000000
 100      -0.003958
 101      -0.000456
 102      -0.000000
 103      -0.003622
 104      -0.000593
 105       0.000000
 106       0.033333
 107       0.073977
 108       0.115698
 109       0.019469
 110       0.000000
 111       0.011421
 112      -0.000600
 113      -0.000000
 114      -0.018368
 115       0.008091
 116       0.000000
 117       0.014314
 118       0.016944
 119      -0.000034
 120       0.002475
 121      -0.000416
 122      -0.000000
 123      -0.000000
 124      -0.000853
 125      -0.002043
 126      -0.000683
 127      -0.005043
 128       0.000000
 129       0.000000
 130       0.003233
 131       0.000000
 132       0.010553
 133      -0.000279
 134       0.000000
 135       0.003958
 136      -0.000456
 137       0.000000
 138       0.003622
 139      -0.000593
 140       0.000000
Ene=    -5.08701E-01
Spin= Alpha
Occup=  2.0000
   1      -0.000000
   2      -0.000000
   3       0.000000
   4      -0.000000
   5      -0.000000
   6       0.178596
   7      -0.000000
   8       0.000000
   9       0.342878
  10       0.000000
  11       0.000000
  12       0.326347
  13      -0.000000
  14      -0.000000
  15       0.295950
  16      -0.000000
  17      -0.000000
  18       0.000000
  19       0.000000
  20       0.000000
  21       0.000000
  22       0.002579
  23       0.000000
  24      -0.000000
  25       0.000000
  26       0.000000
  27       0.000000
  28       0.005429
  29      -0.000000
  30       0.000000
  31       0.000000
  32       0.000000
  33       0.000000
  34       0.015488
  35      -0.000000
  36       0.002385
  37      -0.000000
  38       0.000000
  39       0.002694
  40      -0.000000
  41       0.000000
  42       0.002088
  43      -0.000000
  44       0.000000
  45      -0.000000
  46       0.035261
  47       0.000000
  48      -0.000000
  49       0.021133
  50       0.000000
  51      -0.000000
  52       0.019285
  53       0.000000
  54      -0.000000
  55      -0.000000
  56       0.000000
  57       0.000000
  58       0.000699
  59       0.000000
  60       0.000000
  61       0.000000
  62       0.000000
  63       0.000874
  64       0.000000
  65       0.001097
  66      -0.000000
  67      -0.000000
  68      -0.000000
  69      -0.000000
  70      -0.000000
  71      -0.000000
  72       0.000000
  73       0.000000
  74       0.000000
  75       0.007800
  76       0.000000
  77       0.000000
  78      -0.000373
  79      -0.000000
  80      -0.000000
  81       0.031321
  82      -0.000000
  83      -0.000000
  84      -0.000000
  85      -0.000000
  86       0.000000
  87      -0.001479
  88      -0.001203
  89       0.000000
  90       0.000000
  91       0.000000
  92       0.000000
  93      -0.004401
  94      -0.002976
  95       0.000000
  96       0.004736
  97       0.000000
  98       0.000000
  99       0.003256
 100       0.000000
 101       0.000000
 102       0.002822
 103       0.000000
 104       0.000000
 105       0.000932
 106      -0.000000
 107       0.000000
 108      -0.000000
 109       0.000000
 110       0.007800
 111       0.000000
 112      -0.000000
 113      -0.000373
 114      -0.000000
 115       0.000000
 116       0.031321
 117      -0.000000
 118       0.000000
 119      -0.000000
 120      -0.000000
 121      -0.000000
 122       0.001479
 123      -0.001203
 124      -0.000000
 125       0.000000
 126      -0.000000
 127       0.000000
 128       0.004401
 129      -0.002976
 130       0.000000
 131       0.004736
 132       0.000000
 133      -0.000000
 134       0.003256
 135       0.000000
 136      -0.000000
 137       0.002822
 138       0.000000
 139      -0.000000
 140      -0.000932
Ene=     1.04480E-01
Spin= Alpha
Occup=0.0000
   1       0.030937
   2       0.120633
   3      -0.289412
   4       0.313524
   5       3.451653
   6      -0.000000
   7       0.000000
   8       0.036427
   9       0.000000
  10       0.000000
  11       0.070455
  12       0.000000
  13       0.000000
  14       0.297784
  15      -0.000000
  16       0.000001
  17       0.550826
  18      -0.021623
  19      -0.016349
  20      -0.016596
  21       0.000000
  22       0.000000
  23       0.000000
  24      -0.042018
  25      -0.053486
  26      -0.051912
  27      -0.000000
  28      -0.000000
  29      -0.000000
  30      -0.557512
  31      -0.390951
  32      -0.422054
  33       0.000000
  34       0.000000
  35      -0.000000
  36      -0.000000
  37       0.000000
  38      -0.000245
  39      -0.000000
  40       0.000000
  41      -0.000080
  42      -0.000000
  43      -0.000000
  44       0.001066
  45       0.000000
  46      -0.000000
  47       0.000000
  48       0.004402
  49      -0.000000
  50       0.000000
  51      -0.012636
  52      -0.000000
  53      -0.000000
  54       0.036054
  55       0.000000
  56      -0.051183
  57       0.000000
  58       0.000000
  59      -0.023847
  60      -0.000000
  61      -0.025825
  62       0.000000
  63       0.000000
  64       0.000000
  65       0.000000
  66      -0.026201
  67       0.000000
  68      -0.014089
  69      -0.000000
  70      -0.033095
  71      -0.014149
  72      -0.166550
  73      -0.178277
  74      -1.170355
  75      -0.000000
  76       0.027784
  77       0.023716
  78       0.000000
  79      -0.065099
  80      -0.055003
  81      -0.000000
  82       0.226241
  83       0.159261
  84      -0.004204
  85      -0.006829
  86      -0.006478
  87      -0.000000
  88      -0.000000
  89      -0.002107
  90      -0.047935
  91      -0.101192
  92      -0.076039
  93       0.000000
  94       0.000000
  95      -0.042275
  96      -0.000000
  97       0.053463
  98       0.040482
  99      -0.000000
 100       0.020775
 101       0.016710
 102      -0.000000
 103       0.024542
 104       0.021870
 105      -0.000000
 106      -0.014149
 107      -0.166550
 108      -0.178278
 109      -1.170355
 110      -0.000000
 111      -0.027784
 112       0.023716
 113       0.000000
 114       0.065099
 115      -0.055003
 116      -0.000000
 117      -0.226241
 118       0.159262
 119      -0.004204
 120      -0.006829
 121      -0.006478
 122       0.000000
 123      -0.000000
 124       0.002107
 125      -0.047935
 126      -0.101192
 127      -0.076039
 128      -0.000000
 129      -0.000000
 130       0.042275
 131      -0.000000
 132      -0.053463
 133       0.040482
 134      -0.000000
 135      -0.020775
 136       0.016710
 137      -0.000000
 138      -0.024542
 139       0.021870
 140       0.000000
Ene=     1.64255E-01
Spin= Alpha
Occup=0.0000
   1      -0.000000
   2      -0.000000
   3       0.000000
   4      -0.000000
   5      -0.000001
   6      -0.000000
   7       0.053906
   8      -0.000000
   9       0.000000
  10       0.129629
  11      -0.000000
  12      -0.000000
  13       0.500760
  14      -0.000001
  15       0.000000
  16       1.182440
  17      -0.000001
  18       0.000000
  19       0.000000
  20      -0.000000
  21       0.000000
  22      -0.000000
  23       0.007933
  24       0.000000
  25      -0.000000
  26       0.000000
  27      -0.000000
  28       0.000000
  29      -0.011671
  30       0.000000
  31       0.000000
  32      -0.000000
  33      -0.000000
  34      -0.000000
  35       0.331212
  36      -0.000000
  37       0.006090
  38      -0.000000
  39      -0.000000
  40       0.002370
  41      -0.000000
  42      -0.000000
  43       0.002600
  44      -0.000000
  45       0.000000
  46       0.000000
  47       0.083274
  48      -0.000000
  49       0.000000
  50      -0.004328
  51       0.000000
  52       0.000000
  53       0.072837
  54       0.000000
  55      -0.000000
  56       0.000000
  57       0.000000
  58      -0.000000
  59       0.000000
  60       0.008463
  61      -0.000000
  62       0.000000
  63      -0.000000
  64       0.000000
  65      -0.000000
  66       0.000000
  67       0.030528
  68      -0.000000
  69       0.026452
  70      -0.000000
  71      -0.013802
  72      -0.347522
  73      -0.093189
  74      -2.288178
  75      -0.000000
  76       0.003782
  77      -0.006050
  78       0.000000
  79       0.069328
  80       0.080501
  81      -0.000000
  82       0.355920
  83       0.286909
  84      -0.006569
  85      -0.012613
  86      -0.009162
  87       0.000000
  88      -0.000000
  89      -0.004480
  90      -0.097330
  91      -0.181609
  92      -0.146766
  93      -0.000000
  94      -0.000000
  95      -0.081614
  96      -0.000000
  97       0.023869
  98       0.001612
  99      -0.000000
 100       0.005115
 101      -0.001530
 102      -0.000000
 103       0.015097
 104       0.012128
 105      -0.000000
 106       0.013802
 107       0.347522
 108       0.093190
 109       2.288178
 110      -0.000000
 111       0.003782
 112       0.006050
 113       0.000000
 114       0.069328
 115      -0.080501
 116       0.000000
 117       0.355919
 118      -0.286910
 119       0.006569
 120       0.012613
 121       0.009162
 122      -0.000000
 123      -0.000000
 124      -0.004480
 125       0.097330
 126       0.181608
 127       0.146766
 128      -0.000000
 129       0.000000
 130      -0.081614
 131      -0.000000
 132       0.023869
 133      -0.001612
 134      -0.000000
 135       0.005115
 136       0.001530
 137       0.000000
 138       0.015097
 139      -0.012128
 140      -0.000000
Ene=     4.29911E-01
Spin= Alpha
Occup=0.0000
   1       0.000000
   2      -0.000000
   3      -0.000000
   4       0.000000
   5       0.000002
   6       0.000000
   7      -0.053403
   8      -0.000000
   9      -0.000000
  10      -0.340284
  11      -0.000000
  12       0.000000
  13       0.880189
  14       0.000000
  15       0.000000
  16      -1.780328
  17       0.000001
  18      -0.000000
  19      -0.000000
  20      -0.000000
  21       0.000000
  22      -0.000000
  23       0.001222
  24      -0.000000
  25       0.000000
  26      -0.000000
  27      -0.000000
  28      -0.000000
  29       0.065507
  30      -0.000000
  31      -0.000001
  32       0.000000
  33       0.000000
  34       0.000000
  35      -0.210688
  36      -0.000000
  37      -0.024595
  38      -0.000000
  39       0.000000
  40      -0.015919
  41       0.000000
  42       0.000000
  43      -0.004699
  44       0.000000
  45      -0.000000
  46      -0.000000
  47      -0.513635
  48       0.000000
  49      -0.000000
  50      -0.219998
  51      -0.000000
  52      -0.000000
  53      -0.271846
  54       0.000000
  55      -0.000000
  56      -0.000000
  57       0.000000
  58       0.000000
  59      -0.000000
  60       0.002405
  61      -0.000000
  62       0.000000
  63      -0.000000
  64       0.000000
  65      -0.000000
  66      -0.000000
  67      -0.005974
  68       0.000000
  69      -0.009290
  70       0.000000
  71       0.005000
  72      -0.155914
  73       2.751104
  74      -0.690026
  75       0.000000
  76       0.099472
  77       0.114955
  78      -0.000000
  79      -0.410073
  80      -0.423686
  81       0.000000
  82      -0.005039
  83       0.118932
  84      -0.010648
  85      -0.015989
  86      -0.014509
  87       0.000000
  88      -0.000000
  89      -0.005063
  90      -0.199652
  91      -0.162743
  92      -0.217774
  93      -0.000000
  94      -0.000000
  95       0.008915
  96       0.000000
  97       0.144976
  98       0.169450
  99       0.000000
 100       0.060442
 101       0.069350
 102       0.000000
 103       0.077306
 104       0.085838
 105       0.000000
 106      -0.005000
 107       0.155913
 108      -2.751099
 109       0.690023
 110      -0.000000
 111       0.099471
 112      -0.114955
 113       0.000000
 114      -0.410072
 115       0.423686
 116      -0.000000
 117      -0.005041
 118      -0.118932
 119       0.010648
 120       0.015989
 121       0.014509
 122       0.000000
 123       0.000000
 124      -0.005063
 125       0.199652
 126       0.162742
 127       0.217773
 128      -0.000000
 129      -0.000000
 130       0.008915
 131      -0.000000
 132       0.144975
 133      -0.169450
 134      -0.000000
 135       0.060441
 136      -0.069350
 137      -0.000000
 138       0.077306
 139      -0.085838
 140      -0.000000
Ene=     4.41757E-01
Spin= Alpha
Occup=0.0000
   1      -0.037291
   2       0.032746
   3       0.015771
   4       2.146425
   5       4.116085
   6       0.000000
   7      -0.000000
   8      -0.047387
   9      -0.000000
  10       0.000000
  11       0.136898
  12       0.000000
  13      -0.000001
  14      -0.080661
  15       0.000000
  16       0.000000
  17       2.915377
  18       0.010338
  19       0.035817
  20       0.031806
  21      -0.000000
  22       0.000000
  23      -0.000000
  24       0.053869
  25      -0.082604
  26      -0.056542
  27       0.000000
  28      -0.000000
  29       0.000000
  30       0.055944
  31       1.122275
  32       0.770810
  33      -0.000000
  34       0.000000
  35      -0.000001
  36       0.000000
  37       0.000000
  38       0.029338
  39       0.000000
  40       0.000000
  41       0.016378
  42       0.000000
  43       0.000000
  44       0.008367
  45       0.000000
  46      -0.000000
  47       0.000001
  48       0.475945
  49      -0.000000
  50       0.000000
  51       0.159052
  52      -0.000000
  53      -0.000000
  54       0.407522
  55      -0.000000
  56      -0.015655
  57      -0.000000
  58      -0.000000
  59       0.013227
  60      -0.000000
  61       0.008144
  62      -0.000000
  63       0.000000
  64      -0.000000
  65       0.000000
  66       0.107260
  67      -0.000000
  68       0.076059
  69      -0.000000
  70       0.056841
  71      -0.002796
  72      -0.364780
  73      -4.194752
  74       0.208317
  75      -0.000000
  76      -0.206845
  77      -0.014412
  78       0.000000
  79       1.019210
  80       0.278534
  81      -0.000000
  82       0.907536
  83       0.907418
  84       0.003914
  85      -0.007066
  86      -0.001579
  87      -0.000000
  88       0.000000
  89      -0.007997
  90       0.107620
  91      -0.125037
  92      -0.050438
  93       0.000000
  94      -0.000000
  95      -0.213708
  96      -0.000000
  97      -0.285966
  98      -0.009006
  99      -0.000000
 100      -0.134346
 101      -0.009736
 102      -0.000000
 103      -0.119185
 104       0.011750
 105      -0.000000
 106      -0.002796
 107      -0.364781
 108      -4.194758
 109       0.208317
 110      -0.000000
 111       0.206845
 112      -0.014413
 113       0.000000
 114      -1.019211
 115       0.278537
 116      -0.000000
 117      -0.907535
 118       0.907419
 119       0.003914
 120      -0.007066
 121      -0.001579
 122       0.000000
 123      -0.000000
 124       0.007997
 125       0.107620
 126      -0.125036
 127      -0.050439
 128      -0.000000
 129       0.000000
 130       0.213708
 131      -0.000000
 132       0.285966
 133      -0.009006
 134      -0.000000
 135       0.134346
 136      -0.009736
 137      -0.000000
 138       0.119185
 139       0.011750
 140       0.000000
Ene=     4.64920E-01
Spin= Alpha
Occup=0.0000
   1       0.006497
   2       0.072406
   3       0.314995
   4      -1.618746
   5      -2.949725
   6       0.000000
   7       0.000000
   8       0.087111
   9      -0.000000
  10      -0.000000
  11       0.190678
  12       0.000000
  13       0.000001
  14      -0.908958
  15      -0.000000
  16      -0.000003
  17      -1.049002
  18       0.011475
  19      -0.014295
  20      -0.008826
  21       0.000000
  22      -0.000000
  23      -0.000000
  24       0.017758
  25       0.027273
  26       0.067703
  27      -0.000000
  28       0.000000
  29       0.000000
  30       0.252307
  31      -0.485068
  32      -0.366228
  33       0.000000
  34      -0.000000
  35      -0.000000
  36       0.000000
  37      -0.000000
  38       0.000189
  39       0.000000
  40      -0.000000
  41      -0.000767
  42       0.000000
  43       0.000000
  44      -0.007257
  45       0.000000
  46      -0.000000
  47      -0.000001
  48       0.029247
  49      -0.000000
  50      -0.000000
  51       0.077478
  52      -0.000000
  53      -0.000000
  54      -0.127277
  55       0.000000
  56       0.051047
  57       0.000000
  58      -0.000000
  59       0.003419
  60       0.000000
  61       0.011437
  62       0.000000
  63      -0.000000
  64       0.000000
  65      -0.000000
  66      -0.054689
  67      -0.000000
  68      -0.044331
  69       0.000000
  70      -0.031587
  71       0.000462
  72       0.707647
  73      -0.118530
  74       1.017051
  75       0.000000