[Molden Format]
[Atoms] Angs
E+       1       1     0.00000000     0.00000000     0.00000000
E+       2       1     0.00000000     0.00000000     2.00121982
E+       3       1     0.00000000     0.00000000     4.13094101
[GTO]
  1 0
s  1 1.00
   1.0000000000E-04   1.0000000000E+00
s  1 1.00
   3.0000000000E-04   1.0000000000E+00
s  1 1.00
   9.0000000000E-04   1.0000000000E+00
s  1 1.00
   2.7000000000E-03   1.0000000000E+00
s  1 1.00
   8.1000000000E-03   1.0000000000E+00
s  1 1.00
   2.4300000000E-02   1.0000000000E+00
s  1 1.00
   7.2900000000E-02   1.0000000000E+00
s  1 1.00
   2.1870000000E-01   1.0000000000E+00
s  1 1.00
   6.5610000000E-01   1.0000000000E+00
s  1 1.00
   1.9683000000E+00   1.0000000000E+00
 
  2 0
s  1 1.00
   1.0000000000E-04   1.0000000000E+00
s  1 1.00
   3.0000000000E-04   1.0000000000E+00
s  1 1.00
   9.0000000000E-04   1.0000000000E+00
s  1 1.00
   2.7000000000E-03   1.0000000000E+00
s  1 1.00
   8.1000000000E-03   1.0000000000E+00
s  1 1.00
   2.4300000000E-02   1.0000000000E+00
s  1 1.00
   7.2900000000E-02   1.0000000000E+00
s  1 1.00
   2.1870000000E-01   1.0000000000E+00
s  1 1.00
   6.5610000000E-01   1.0000000000E+00
s  1 1.00
   1.9683000000E+00   1.0000000000E+00
 
  3 0
s  1 1.00
   1.0000000000E-04   1.0000000000E+00
s  1 1.00
   3.0000000000E-04   1.0000000000E+00
s  1 1.00
   9.0000000000E-04   1.0000000000E+00
s  1 1.00
   2.7000000000E-03   1.0000000000E+00
s  1 1.00
   8.1000000000E-03   1.0000000000E+00
s  1 1.00
   2.4300000000E-02   1.0000000000E+00
s  1 1.00
   7.2900000000E-02   1.0000000000E+00
s  1 1.00
   2.1870000000E-01   1.0000000000E+00
s  1 1.00
   6.5610000000E-01   1.0000000000E+00
s  1 1.00
   1.9683000000E+00   1.0000000000E+00
 
 
[MO]
Ene=    -7.58863E-05
Spin= Alpha
Occup=  1.0000
   1    -127.648558
   2     -13.394516
   3      -8.186272
   4      -1.328149
   5      -0.255668
   6      -0.030502
   7      -0.003682
   8       0.001144
   9      -0.000160
  10       0.000098
  11     257.843763
  12      30.335752
  13      17.907537
  14       3.215443
  15       0.666779
  16       0.094191
  17       0.010731
  18      -0.000076
  19       0.000447
  20       0.000074
  21    -130.779054
  22     -17.156348
  23      -9.925013
  24      -1.976442
  25      -0.445759
  26      -0.070036
  27      -0.002016
  28       0.005219
  29       0.001083
  30       0.000167
Ene=     2.22570E-04
Spin= Alpha
Occup=  0.0000
   1   -1076.754537
   2      86.887007
   3      -1.366597
   4       1.313690
   5       0.184366
   6       0.018238
   7       0.003844
   8      -0.001151
   9       0.000200
  10      -0.000088
  11    2125.846548
  12    -179.613855
  13       2.205723
  14      -3.232285
  15      -0.447829
  16      -0.070073
  17      -0.007961
  18      -0.000011
  19      -0.000309
  20      -0.000058
  21   -1050.000912
  22      93.227221
  23      -0.717081
  24       1.975079
  25       0.295633
  26       0.053626
  27       0.001326
  28      -0.003823
  29      -0.000814
  30      -0.000121
Ene=     2.71716E-04
Spin= Alpha
Occup=  0.0000
   1     520.295059
   2    -132.463970
   3       7.939765
   4      -1.402984
   5       0.004619
   6      -0.013328
   7      -0.000597
   8       0.000237
   9      -0.000035
  10       0.000020
  11    -968.869703
  12     250.842966
  13     -13.850418
  14       2.707533
  15       0.053277
  16       0.031925
  17       0.001833
  18       0.000158
  19       0.000053
  20       0.000026
  21     449.830142
  22    -119.202031
  23       5.958865
  24      -1.342495
  25      -0.070720
  26      -0.017721
  27      -0.001203
  28       0.001521
  29       0.000197
  30       0.000052
Ene=     4.10991E-04
Spin= Alpha
Occup=  0.0000
   1   -1663.620327
   2     -12.709850
   3       4.344826
   4      -2.170276
   5       0.020745
   6      -0.032804
   7      -0.000471
   8       0.000442
   9      -0.000057
  10       0.000046
  11    3209.971143
  12      30.561991
  13      -7.487039
  14       4.550106
  15       0.059703
  16       0.080459
  17       0.002860
  18       0.000350
  19       0.000155
  20       0.000055
  21   -1545.556591
  22     -19.532924
  23       3.451161
  24      -2.546186
  25      -0.073263
  26      -0.056234
  27       0.001072
  28       0.002453
  29       0.000656
  30       0.000075
Ene=     1.02335E-03
Spin= Alpha
Occup=  0.0000
   1     583.471154
   2    -416.254964
   3       8.070043
   4       1.006358
   5       0.028630
   6       0.049390
   7      -0.002272
   8       0.000195
   9      -0.000182
  10      -0.000029
  11   -1165.026540
  12     845.491000
  13     -23.912322
  14      -1.636357
  15      -0.373540
  16      -0.093780
  17      -0.006709
  18      -0.000220
  19      -0.000359
  20      -0.000069
  21     581.774521
  22    -429.353075
  23      15.721894
  24       0.785583
  25       0.337940
  26       0.057594
  27       0.002085
  28      -0.004575
  29      -0.000808
  30      -0.000154
Ene=     1.13518E-03
Spin= Alpha
Occup=  0.0000
   1    -422.055159
   2     572.686954
   3     -59.349875
   4       2.517933
   5      -0.401037
   6      -0.007342
   7      -0.002052
   8       0.000378
   9      -0.000027
  10       0.000039
  11     800.441801
  12   -1087.828141
  13     113.177291
  14      -4.183291
  15       0.826448
  16       0.029881
  17       0.007996
  18      -0.000763
  19       0.000423
  20       0.000006
  21    -379.454911
  22     517.270804
  23     -54.510773
  24       1.611967
  25      -0.425209
  26      -0.039116
  27       0.001441
  28       0.001931
  29       0.000800
  30       0.000049
Ene=     1.64643E-03
Spin= Alpha
Occup=  0.0000
   1     854.480858
   2    -425.622502
   3     -35.616318
   4       2.571848
   5      -0.905620
   6       0.020143
   7      -0.010923
   8       0.002144
   9      -0.000352
  10       0.000144
  11   -1645.895989
  12     809.681799
  13      74.792724
  14      -4.230884
  15       1.947100
  16       0.011603
  17       0.023807
  18      -0.001479
  19       0.000795
  20       0.000041
  21     790.794892
  22    -381.658821
  23     -41.627460
  24       2.015564
  25      -1.205500
  26      -0.014579
  27      -0.012008
  28       0.008104
  29       0.000940
  30       0.000273
Ene=     3.42151E-03
Spin= Alpha
Occup=  0.0000
   1     284.566009
   2    -245.208576
   3      97.492758
   4       3.970051
   5      -0.735778
   6       0.099958
   7      -0.022846
   8       0.005949
   9      -0.001330
  10       0.000361
  11    -570.003809
  12     506.627138
  13    -215.032380
  14      -2.427295
  15       0.988184
  16      -0.014191
  17       0.020447
  18      -0.000440
  19       0.000587
  20       0.000063
  21     285.425929
  22    -261.029604
  23     116.618682
  24      -1.010529
  25      -0.410171
  26      -0.047107
  27      -0.001210
  28       0.004362
  29       0.001382
  30       0.000118
Ene=     3.74940E-03
Spin= Alpha
Occup=  0.0000
   1     127.565542
   2    -346.776683
   3     261.546552
   4     -19.485894
   5       0.684635
   6      -0.078174
   7      -0.005776
   8       0.002209
   9      -0.000554
  10       0.000134
  11    -241.090660
  12     660.456056
  13    -496.121932
  14      37.367507
  15      -1.132751
  16       0.204461
  17      -0.000368
  18       0.002606
  19      -0.000415
  20       0.000192
  21     114.145498
  22    -315.483541
  23     236.580405
  24     -18.194625
  25       0.326878
  26      -0.086349
  27      -0.008876
  28       0.007309
  29       0.000260
  30       0.000266
Ene=     5.67631E-03
Spin= Alpha
Occup=  0.0000
   1     412.099430
   2    -278.605551
   3      85.077099
   4      18.646557
   5      -1.094349
   6       0.297073
   7      -0.012522
   8       0.000144
   9      -0.000156
  10      -0.000120
  11    -792.471970
  12     528.882821
  13    -153.976234
  14     -40.205280
  15       1.695973
  16      -0.635969
  17       0.009676
  18      -0.003453
  19      -0.000433
  20      -0.000304
  21     380.094504
  22    -248.816316
  23      65.763681
  24      24.348881
  25      -1.024108
  26       0.478339
  27      -0.036882
  28      -0.004931
  29      -0.004608
  30      -0.000068
Ene=     1.06350E-02
Spin= Alpha
Occup=  0.0000
   1    -157.453425
   2     125.880778
   3     -60.427606
   4      10.994788
   5       3.578693
   6      -0.415989
   7       0.080898
   8      -0.015323
   9       0.004538
  10      -0.000585
  11     314.319561
  12    -260.622541
  13     137.905234
  14     -37.857652
  15      -3.496775
  16       0.391925
  17      -0.023896
  18       0.005381
  19       0.000493
  20       0.000253
  21    -156.822096
  22     134.354425
  23     -76.310268
  24      25.103377
  25       0.706686
  26      -0.127465
  27       0.001053
  28       0.008634
  29       0.000667
  30       0.000385
Ene=     1.17120E-02
Spin= Alpha
Occup=  0.0000
   1       5.077905
   2    -130.999344
   3     160.953845
   4     -98.143887
   5       5.801823
   6      -0.164828
   7       0.004456
   8       0.003201
   9      -0.001241
  10       0.000094
  11      -7.832932
  12     249.847157
  13    -306.180798
  14     185.332077
  15     -11.514983
  16       0.380231
  17      -0.073090
  18       0.012220
  19      -0.004101
  20       0.000421
  21       3.081449
  22    -119.919447
  23     146.987974
  24     -88.589420
  25       5.620799
  26      -0.040933
  27      -0.008691
  28      -0.001731
  29      -0.003945
  30       0.000050
Ene=     1.91505E-02
Spin= Alpha
Occup=  0.0000
   1     199.604567
   2    -148.239504
   3      69.174636
   4     -14.381155
   5      -7.976140
   6       0.469785
   7      -0.100575
   8       0.015809
   9      -0.003080
  10       0.000770
  11    -383.244423
  12     280.864992
  13    -126.507458
  14      21.457662
  15      17.733851
  16      -0.663505
  17       0.172241
  18      -0.010628
  19       0.003056
  20       0.000112
  21     183.540889
  22    -131.999657
  23      55.530568
  24      -3.742903
  25     -12.748748
  26       0.732723
  27      -0.185977
  28       0.063718
  29      -0.003174
  30       0.002383
Ene=     3.21275E-02
Spin= Alpha
Occup=  0.0000
   1     -93.182867
   2      74.125130
   3     -36.946906
   4       9.301723
   5       4.069661
   6      -2.096576
   7       0.270947
   8      -0.070231
   9       0.016179
  10      -0.003886
  11     185.111217
  12    -151.796136
  13      82.544361
  14     -31.178593
  15       2.992602
  16       1.547376
  17      -0.131441
  18      -0.003167
  19      -0.001115
  20      -0.000285
  21     -91.904117
  22      77.444098
  23     -44.828111
  24      20.125896
  25      -4.741333
  26      -0.398501
  27       0.018634
  28      -0.003249
  29      -0.003126
  30       0.000019
Ene=     3.60942E-02
Spin= Alpha
Occup=  0.0000
   1     -24.919181
   2     -40.448990
   3      66.958906
   4     -61.828378
   5      33.963418
   6      -1.603513
   7       0.018890
   8       0.014573
   9      -0.005130
  10       0.000943
  11      49.111690
  12      76.774397
  13    -127.307128
  14     116.705689
  15     -63.550471
  16       3.696728
  17      -0.232903
  18       0.059728
  19      -0.012875
  20       0.002708
  21     -24.028630
  22     -36.895712
  23      61.403571
  24     -56.157148
  25      30.178849
  26      -1.578533
  27      -0.001230
  28       0.034497
  29      -0.001997
  30       0.001399
Ene=     6.60079E-02
Spin= Alpha
Occup=  0.0000
   1      95.294400
   2     -75.677865
   3      39.862685
   4     -14.942248
   5       0.909247
   6       3.245131
   7      -0.183527
   8       0.016676
   9      -0.003461
  10      -0.000088
  11    -182.684020
  12     143.138600
  13     -73.060105
  14      24.780627
  15       1.365631
  16      -7.225719
  17       0.222280
  18      -0.009583
  19      -0.006664
  20      -0.000819
  21      87.358730
  22     -67.216119
  23      32.404515
  24      -7.948516
  25      -5.619648
  26       7.172814
  27      -0.796743
  28       0.094952
  29      -0.053440
  30       0.004791
Ene=     9.58332E-02
Spin= Alpha
Occup=  0.0000
   1     -53.261611
   2      44.939968
   3     -24.388664
   4       8.424920
   5       1.496489
   6      -4.626241
   7       1.285781
   8      -0.222560
   9       0.063475
  10      -0.008473
  11     105.496645
  12     -91.137524
  13      52.672093
  14     -23.381647
  15       6.002421
  16       0.997469
  17      -0.295987
  18       0.029800
  19       0.012303
  20       0.000285
  21     -52.229118
  22      46.094452
  23     -27.887176
  24      13.900508
  25      -5.331574
  26       0.910713
  27       0.091234
  28       0.006745
  29      -0.001052
  30       0.001280
Ene=     1.10557E-01
Spin= Alpha
Occup=  0.0000
   1     -23.078806
   2     -10.099307
   3      26.369558
   4     -27.719247
   5      22.229852
   6     -11.491406
   7       0.459275
   8       0.006656
   9      -0.005808
  10      -0.000135
  11      45.176483
  12      18.710451
  13     -49.817121
  14      52.019709
  15     -41.269289
  16      21.409603
  17      -1.706073
  18       0.217577
  19      -0.061866
  20       0.008559
  21     -22.017376
  22      -8.903451
  23      24.016634
  24     -25.085925
  25      19.658743
  26      -9.626135
  27       0.326150
  28       0.001337
  29      -0.021118
  30       0.000701
Ene=     2.40913E-01
Spin= Alpha
Occup=  0.0000
   1      46.650810
   2     -39.299705
   3      22.168845
   4      -9.624750
   5       2.419325
   6       1.036780
   7      -1.538504
   8       0.173465
   9      -0.033642
  10       0.005999
  11     -89.434858
  12      74.453324
  13     -40.957657
  14      16.690558
  15      -3.148017
  16      -2.631208
  17       2.592616
  18      -0.026683
  19      -0.004209
  20       0.003887
  21      42.775821
  22     -35.056721
  23      18.442436
  24      -6.172131
  25      -1.212847
  26       5.006611
  27      -4.693547
  28       1.087060
  29      -0.144614
  30       0.037058
Ene=     2.84789E-01
Spin= Alpha
Occup=  0.0000
   1     -27.249837
   2      23.767652
   3     -13.338930
   4       4.980007
   5       0.434949
   6      -3.569922
   7       3.802063
   8      -1.018526
   9       0.199117
  10      -0.046068
  11      54.061009
  12     -48.268725
  13      28.758179
  14     -13.405869
  15       4.269308
  16       0.002987
  17      -0.642206
  18      -0.198895
  19       0.024334
  20      -0.006701
  21     -26.810681
  22      24.456679
  23     -15.232250
  24       7.902137
  25      -3.492120
  26       1.265606
  27      -0.401279
  28       0.149666
  29      -0.016743
  30       0.004936
Ene=     3.41694E-01
Spin= Alpha
Occup=  0.0000
   1     -13.638366
   2      -3.008393
   3      11.680792
   4     -12.726370
   5      10.696867
   6      -7.730370
   7       3.839636
   8      -0.167689
   9      -0.003792
  10      -0.000941
  11      26.616550
  12       5.472762
  13     -22.093569
  14      23.945544
  15     -19.978353
  16      14.630985
  17      -8.107309
  18       1.468948
  19      -0.237827
  20       0.045430
  21     -12.938522
  22      -2.611189
  23      10.702156
  24     -11.625657
  25       9.619307
  26      -6.654257
  27       2.920645
  28       0.028965
  29      -0.004014
  30       0.003952
Ene=     8.48886E-01
Spin= Alpha
Occup=  0.0000
   1      23.032296
   2     -20.639892
   3      12.135342
   4      -5.247320
   5       0.892231
   6       1.664866
   7      -3.170830
   8       3.084898
   9      -0.860617
  10       0.095644
  11     -45.034833
  12      40.701413
  13     -24.486085
  14      11.539582
  15      -3.840768
  16       0.252803
  17       0.642876
  18      -0.035634
  19      -0.316682
  20       0.015516
  21      22.002936
  22     -20.027284
  23      12.200832
  24      -5.868713
  25       1.957576
  26       0.148713
  27      -1.168628
  28       1.263400
  29      -0.405929
  30       0.034465
Ene=     9.43312E-01
Spin= Alpha
Occup=  0.0000
   1     -12.779266
   2      11.550701
   3      -7.168909
   4       3.766201
   5      -1.814880
   6       0.987333
   7      -0.867496
   8       0.845363
   9      -0.311092
  10       0.045706
  11      24.030931
  12     -21.094067
  13      12.305578
  14      -5.541632
  15       1.640284
  16       0.105720
  17      -0.512843
  18       0.211477
  19       0.093415
  20      -0.002168
  21     -11.251018
  22       9.522408
  23      -5.052603
  24       1.547205
  25       0.693718
  26      -2.151268
  27       3.261952
  28      -3.372564
  29       1.239059
  30      -0.129247
Ene=     1.12804E+00
Spin= Alpha
Occup=  0.0000
   1       8.537128
   2      -0.041990
   3      -4.873045
   4       5.806684
   5      -5.001994
   6       3.783714
   7      -2.640489
   8       1.406110
   9      -0.159302
  10       0.035274
  11     -16.606817
  12       0.205386
  13       9.237851
  14     -10.963877
  15       9.389314
  16      -7.245720
  17       5.728408
  18      -4.291568
  19       1.372862
  20      -0.154568
  21       8.049866
  22      -0.087606
  23      -4.519210
  24       5.386072
  25      -4.612828
  26       3.430726
  27      -2.285679
  28       1.107075
  29      -0.073819
  30       0.018904
Ene=     2.35861E+00
Spin= Alpha
Occup=  0.0000
   1      -9.874308
   2       8.904222
   3      -5.206102
   4       2.155299
   5      -0.189037
   6      -1.016470
   7       1.956076
   8      -2.910083
   9       2.771978
  10      -0.559638
  11      19.481005
  12     -17.861835
  13      10.887622
  14      -5.212997
  15       1.801804
  16      -0.209389
  17      -0.198609
  18      -0.059762
  19       0.364120
  20      -0.076781
  21      -9.607246
  22       8.944017
  23      -5.618842
  24       2.877822
  25      -1.190247
  26       0.335704
  27      -0.008502
  28      -0.026762
  29      -0.023607
  30       0.006536
Ene=     3.15825E+00
Spin= Alpha
Occup=  0.0000
   1       6.507600
   2      -7.753715
   3       5.918967
   4      -3.734951
   5       2.091507
   6      -1.088385
   7       0.593012
   8      -0.428361
   9       0.332732
  10      -0.088142
  11     -12.339118
  12      14.544886
  13     -10.881127
  14       6.614892
  15      -3.483018
  16       1.721700
  17      -1.131647
  18       1.389158
  19      -1.611901
  20       0.454527
  21       5.836218
  22      -6.796332
  23       4.944113
  24      -2.782239
  25       1.095677
  26       0.096178
  27      -1.067766
  28       2.102233
  29      -2.534270
  30       0.759577
Ene=     3.50124E+00
Spin= Alpha
Occup=  0.0000
   1      -7.316725
   2       3.098464
   3       0.339132
   4      -1.693392
   5       1.857322
   6      -1.536832
   7       1.119622
   8      -0.755324
   9       0.428089
  10      -0.111580
  11      14.072326
  12      -5.823329
  13      -0.851802
  14       3.457864
  15      -3.766597
  16       3.231051
  17      -2.764852
  18       2.796362
  19      -2.678365
  20       0.810484
  21      -6.746436
  22       2.684828
  23       0.605260
  24      -1.928867
  25       2.147464
  26      -1.955537
  27       1.781376
  28      -1.830313
  29       1.746805
  30      -0.559955
Ene=     7.51691E+00
Spin= Alpha
Occup=  0.0000
   1      -5.647568
   2       4.605549
   3      -2.376273
   4       0.735231
   5       0.229142
   6      -0.764807
   7       1.175102
   8      -1.767482
   9       2.521221
  10      -2.075256
  11      11.138460
  12      -9.266275
  13       5.055378
  14      -2.005569
  15       0.342649
  16       0.335835
  17      -0.458922
  18       0.347477
  19      -0.188232
  20       0.071402
  21      -5.489936
  22       4.648946
  23      -2.637068
  24       1.163495
  25      -0.342090
  26      -0.017425
  27       0.107412
  28      -0.064865
  29       0.005989
  30      -0.003220
Ene=     1.33187E+01
Spin= Alpha
Occup=  0.0000
   1       1.281622
   2       0.890142
   3      -1.828054
   4       1.762474
   5      -1.335520
   6       0.876638
   7      -0.507412
   8       0.241188
   9      -0.061305
  10      -0.016344
  11      -2.475693
  12      -1.735263
  13       3.545943
  14      -3.417054
  15       2.621448
  16      -1.855324
  17       1.457757
  18      -1.584530
  19       2.117231
  20      -1.964586
  21       1.188734
  22       0.863934
  23      -1.752609
  24       1.696993
  25      -1.302520
  26       0.881136
  27      -0.552822
  28       0.343146
  29      -0.243085
  30       0.167339
Ene=     1.42236E+01
Spin= Alpha
Occup=  0.0000
   1       4.670198
   2      -4.110276
   3       2.434503
   4      -1.147625
   5       0.400019
   6      -0.052452
   7      -0.053880
   8       0.040641
   9      -0.010982
  10       0.015995
  11      -8.911349
  12       7.721397
  13      -4.426711
  14       1.925819
  15      -0.506065
  16      -0.104770
  17       0.230230
  18      -0.126137
  19      -0.031181
  20       0.095913
  21       4.240794
  22      -3.602996
  23       1.960641
  24      -0.694370
  25      -0.079776
  26       0.527075
  27      -0.869222
  28       1.339842
  29      -1.992573
  30       1.926919
