[Molden Format]
[Atoms] Angs
H       1       1     0.00000000     0.00000000     0.00000000
C       2       6     0.00000000     0.00000000     2.00121982
N       3       7     0.00000000     0.00000000     4.13094101
[GTO]
  1 0
s  3 1.00
   3.3865000000E+01   2.5493800000E-02
   5.0947900000E+00   1.9037300000E-01
   1.1587900000E+00   8.5216100000E-01
s  1 1.00
   3.2584000000E-01   1.0000000000E+00
s  1 1.00
   1.0274100000E-01   1.0000000000E+00
s  1 1.00
   3.6000000000E-02   1.0000000000E+00
p  1 1.00
   7.5000000000E-01   1.0000000000E+00
 
  2 0
s  6 1.00
   4.5632400000E+03   1.9666500000E-03
   6.8202400000E+02   1.5230600000E-02
   1.5497300000E+02   7.6126900000E-02
   4.4455300000E+01   2.6080100000E-01
   1.3029000000E+01   6.1646200000E-01
   1.8277300000E+00   2.2100600000E-01
s  3 1.00
   2.0964200000E+01   1.1466000000E-01
   4.8033100000E+00   9.1999900000E-01
   1.4593300000E+00  -3.0306800000E-03
p  3 1.00
   2.0964200000E+01   4.0248700000E-02
   4.8033100000E+00   2.3759400000E-01
   1.4593300000E+00   8.1585400000E-01
s  1 1.00
   4.8345600000E-01   1.0000000000E+00
p  1 1.00
   4.8345600000E-01   1.0000000000E+00
s  1 1.00
   1.4558500000E-01   1.0000000000E+00
p  1 1.00
   1.4558500000E-01   1.0000000000E+00
s  1 1.00
   4.3800000000E-02   1.0000000000E+00
p  1 1.00
   4.3800000000E-02   1.0000000000E+00
d  1 1.00
   6.2600000000E-01   1.0000000000E+00
 
  3 0
s  6 1.00
   6.2934800000E+03   1.9697900000E-03
   9.4904400000E+02   1.4961300000E-02
   2.1877600000E+02   7.3500600000E-02
   6.3691600000E+01   2.4893700000E-01
   1.8828200000E+01   6.0246000000E-01
   2.7202300000E+00   2.5620200000E-01
s  3 1.00
   3.0633100000E+01   1.1190600000E-01
   7.0261400000E+00   9.2166600000E-01
   2.1120500000E+00  -2.5691900000E-03
p  3 1.00
   3.0633100000E+01   3.8311900000E-02
   7.0261400000E+00   2.3740300000E-01
   2.1120500000E+00   8.1759200000E-01
s  1 1.00
   6.8400900000E-01   1.0000000000E+00
p  1 1.00
   6.8400900000E-01   1.0000000000E+00
s  1 1.00
   2.0087800000E-01   1.0000000000E+00
p  1 1.00
   2.0087800000E-01   1.0000000000E+00
s  1 1.00
   6.3900000000E-02   1.0000000000E+00
p  1 1.00
   6.3900000000E-02   1.0000000000E+00
d  1 1.00
   9.1300000000E-01   1.0000000000E+00
 
 
[MO]
Ene=    -1.56193E+01
Spin= Alpha
Occup=  2.0000
   1      -0.000110
   2      -0.000490
   3      -0.000452
   4      -0.000043
   5      -0.000000
   6      -0.000000
   7      -0.000221
   8       0.000110
   9      -0.000056
  10       0.000000
  11      -0.000000
  12       0.000262
  13       0.000791
  14       0.000000
  15      -0.000000
  16       0.000756
  17      -0.000982
  18       0.000000
  19      -0.000000
  20      -0.001177
  21      -0.000571
  22       0.000000
  23       0.000000
  24      -0.000359
  25      -0.000184
  26      -0.000184
  27       0.000878
  28       0.000000
  29      -0.000000
  30      -0.000000
  31       0.557763
  32       0.468109
  33       0.000000
  34       0.000000
  35      -0.002155
  36       0.004389
  37       0.000000
  38      -0.000000
  39       0.001329
  40       0.001390
  41      -0.000000
  42       0.000000
  43      -0.000935
  44       0.001324
  45       0.000000
  46      -0.000000
  47      -0.000055
  48      -0.000701
  49      -0.000701
  50      -0.000293
  51      -0.000000
  52      -0.000000
  53      -0.000000
Ene=    -1.13115E+01
Spin= Alpha
Occup=  2.0000
   1      -0.000318
   2      -0.000084
   3       0.000163
   4      -0.000377
   5      -0.000000
   6       0.000000
   7      -0.000117
   8      -0.563178
   9      -0.466031
  10       0.000000
  11      -0.000000
  12       0.000560
  13      -0.005260
  14      -0.000000
  15       0.000000
  16      -0.000527
  17      -0.002632
  18      -0.000000
  19       0.000000
  20      -0.000317
  21      -0.000152
  22      -0.000000
  23       0.000000
  24      -0.000301
  25       0.001568
  26       0.001568
  27       0.000486
  28      -0.000000
  29      -0.000000
  30       0.000000
  31       0.000565
  32       0.000618
  33      -0.000000
  34       0.000000
  35       0.000345
  36      -0.000567
  37       0.000000
  38      -0.000000
  39       0.000935
  40       0.000425
  41      -0.000000
  42       0.000000
  43      -0.000219
  44       0.001298
  45       0.000000
  46      -0.000000
  47      -0.000401
  48       0.000179
  49       0.000179
  50      -0.000640
  51       0.000000
  52      -0.000000
  53      -0.000000
Ene=    -1.28004E+00
Spin= Alpha
Occup=  2.0000
   1      -0.015810
   2       0.002397
   3       0.013192
   4      -0.000728
   5      -0.000000
   6       0.000000
   7       0.005286
   8       0.081383
   9       0.132151
  10       0.000000
  11       0.000000
  12      -0.107860
  13      -0.319233
  14      -0.000000
  15       0.000000
  16      -0.105907
  17      -0.107443
  18       0.000000
  19       0.000000
  20       0.021420
  21      -0.038156
  22      -0.000000
  23      -0.000000
  24      -0.009475
  25       0.018312
  26       0.018312
  27      -0.029735
  28      -0.000000
  29       0.000000
  30       0.000000
  31       0.097841
  32       0.161393
  33      -0.000000
  34       0.000000
  35       0.093578
  36      -0.420436
  37       0.000000
  38       0.000000
  39       0.134776
  40      -0.304071
  41      -0.000000
  42      -0.000000
  43       0.053982
  44       0.062737
  45       0.000000
  46       0.000000
  47      -0.018339
  48       0.014694
  49       0.014694
  50      -0.030530
  51       0.000000
  52       0.000000
  53      -0.000000
Ene=    -8.37961E-01
Spin= Alpha
Occup=  2.0000
   1      -0.178640
   2      -0.253372
   3      -0.014601
   4      -0.011327
   5      -0.000000
   6       0.000000
   7      -0.026156
   8       0.067232
   9       0.111091
  10       0.000000
  11       0.000000
  12       0.155379
  13      -0.304399
  14       0.000000
  15       0.000000
  16       0.198838
  17      -0.252117
  18       0.000000
  19       0.000000
  20       0.101110
  21       0.021617
  22      -0.000000
  23       0.000000
  24       0.008876
  25       0.007014
  26       0.007014
  27      -0.050164
  28      -0.000000
  29       0.000000
  30      -0.000000
  31      -0.037117
  32      -0.062063
  33       0.000000
  34      -0.000000
  35       0.001211
  36       0.189362
  37      -0.000000
  38      -0.000000
  39      -0.017324
  40       0.146122
  41      -0.000000
  42       0.000000
  43       0.011401
  44      -0.016450
  45       0.000000
  46      -0.000000
  47      -0.003391
  48      -0.002400
  49      -0.002400
  50       0.016840
  51       0.000000
  52      -0.000000
  53       0.000000
Ene=    -6.08574E-01
Spin= Alpha
Occup=  2.0000
   1       0.047665
   2       0.075265
   3       0.015860
   4       0.028517
   5      -0.000000
   6       0.000000
   7       0.007336
   8       0.033883
   9       0.057969
  10       0.000000
  11      -0.000000
  12      -0.123014
  13      -0.156268
  14       0.000000
  15      -0.000000
  16      -0.142338
  17      -0.118995
  18       0.000000
  19      -0.000000
  20      -0.095364
  21      -0.056638
  22      -0.000000
  23      -0.000000
  24       0.010766
  25       0.004255
  26       0.004255
  27       0.011134
  28      -0.000000
  29       0.000000
  30       0.000000
  31      -0.058027
  32      -0.098717
  33       0.000000
  34       0.000000
  35       0.234530
  36       0.278594
  37       0.000000
  38       0.000000
  39       0.362295
  40       0.457498
  41      -0.000000
  42       0.000000
  43       0.211665
  44       0.113555
  45       0.000000
  46       0.000000
  47      -0.009703
  48       0.012593
  49       0.012593
  50      -0.035395
  51      -0.000000
  52      -0.000000
  53       0.000000
Ene=    -5.32539E-01
Spin= Alpha
Occup=  2.0000
   1       0.000000
   2      -0.000000
   3      -0.000000
   4       0.000000
   5      -0.015780
   6      -0.000220
   7      -0.000000
   8       0.000000
   9       0.000000
  10      -0.174983
  11      -0.002442
  12      -0.000000
  13       0.000000
  14      -0.288851
  15      -0.004032
  16       0.000000
  17      -0.000000
  18      -0.207668
  19      -0.002899
  20      -0.000000
  21      -0.000000
  22      -0.015590
  23      -0.000218
  24      -0.000000
  25       0.000000
  26       0.000000
  27       0.000000
  28       0.000000
  29      -0.042689
  30      -0.000596
  31       0.000000
  32      -0.000000
  33      -0.194093
  34      -0.002709
  35      -0.000000
  36      -0.000000
  37      -0.310394
  38      -0.004333
  39       0.000000
  40       0.000000
  41      -0.239365
  42      -0.003341
  43      -0.000000
  44       0.000000
  45      -0.006853
  46      -0.000096
  47      -0.000000
  48      -0.000000
  49      -0.000000
  50      -0.000000
  51      -0.000000
  52       0.038245
  53       0.000534
Ene=    -5.32539E-01
Spin= Alpha
Occup=  2.0000
   1      -0.000000
   2       0.000000
   3       0.000000
   4      -0.000000
   5      -0.000220
   6       0.015780
   7       0.000000
   8       0.000000
   9      -0.000000
  10      -0.002442
  11       0.174983
  12       0.000000
  13      -0.000000
  14      -0.004032
  15       0.288851
  16       0.000000
  17       0.000000
  18      -0.002899
  19       0.207668
  20       0.000000
  21       0.000000
  22      -0.000218
  23       0.015590
  24       0.000000
  25      -0.000000
  26      -0.000000
  27      -0.000000
  28       0.000000
  29      -0.000596
  30       0.042689
  31      -0.000000
  32       0.000000
  33      -0.002709
  34       0.194093
  35       0.000000
  36       0.000000
  37      -0.004333
  38       0.310394
  39      -0.000000
  40      -0.000000
  41      -0.003341
  42       0.239365
  43       0.000000
  44      -0.000000
  45      -0.000096
  46       0.006853
  47       0.000000
  48       0.000000
  49       0.000000
  50       0.000000
  51      -0.000000
  52       0.000534
  53      -0.038245
Ene=     1.28914E-02
Spin= Alpha
Occup=  0.0000
   1       0.011161
   2       0.057446
   3      -0.185020
   4      -4.571326
   5       0.000000
   6       0.000000
   7       0.015004
   8      -0.013735
   9      -0.022244
  10       0.000000
  11       0.000000
  12      -0.029258
  13       0.080917
  14       0.000000
  15       0.000000
  16      -0.059624
  17      -0.017623
  18       0.000000
  19       0.000000
  20       0.000907
  21       3.667201
  22       0.000000
  23       0.000000
  24      -1.560642
  25       0.007385
  26       0.007385
  27       0.001199
  28      -0.000000
  29       0.000000
  30       0.000000
  31      -0.001897
  32      -0.002547
  33      -0.000000
  34       0.000000
  35       0.012002
  36       0.016631
  37      -0.000000
  38      -0.000000
  39       0.019809
  40      -0.018839
  41      -0.000000
  42       0.000000
  43      -0.028966
  44       0.317965
  45       0.000000
  46      -0.000000
  47       0.352470
  48       0.001747
  49       0.001747
  50       0.005957
  51       0.000000
  52      -0.000000
  53       0.000000
Ene=     6.08702E-02
Spin= Alpha
Occup=  0.0000
   1      -0.025617
   2      -0.005137
   3       0.322412
   4      -0.718171
   5      -0.000000
   6      -0.000000
   7       0.016890
   8      -0.004576
   9      -0.011400
  10      -0.000000
  11       0.000000
  12      -0.007969
  13      -0.036283
  14      -0.000000
  15      -0.000000
  16      -0.040888
  17       1.002287
  18       0.000000
  19       0.000000
  20       0.595990
  21       5.216666
  22      -0.000000
  23      -0.000000
  24       2.090537
  25      -0.006065
  26      -0.006065
  27      -0.050516
  28      -0.000000
  29       0.000000
  30       0.000000
  31       0.018724
  32       0.031016
  33       0.000000
  34       0.000000
  35      -0.002527
  36      -0.102786
  37       0.000000
  38       0.000000
  39      -0.046182
  40      -0.295434
  41       0.000000
  42       0.000000
  43       0.248710
  44      -5.321566
  45       0.000000
  46       0.000000
  47       0.792184
  48      -0.005050
  49      -0.005050
  50       0.000336
  51       0.000000
  52      -0.000000
  53      -0.000000
Ene=     6.61852E-02
Spin= Alpha
Occup=  0.0000
   1      -0.000000
   2      -0.000000
   3      -0.000000
   4      -0.000000
   5      -0.000132
   6       0.018569
   7       0.000000
   8      -0.000000
   9      -0.000000
  10      -0.000087
  11       0.012172
  12      -0.000000
  13      -0.000000
  14      -0.000387
  15       0.054307
  16      -0.000000
  17       0.000000
  18       0.000409
  19      -0.057354
  20       0.000000
  21       0.000000
  22      -0.011420
  23       1.602826
  24       0.000000
  25       0.000000
  26       0.000000
  27      -0.000000
  28       0.000000
  29       0.000217
  30      -0.030484
  31       0.000000
  32       0.000000
  33       0.000557
  34      -0.078138
  35      -0.000000
  36      -0.000000
  37       0.000999
  38      -0.140197
  39      -0.000000
  40       0.000000
  41       0.000515
  42      -0.072230
  43      -0.000000
  44      -0.000000
  45       0.006019
  46      -0.844714
  47       0.000000
  48      -0.000000
  49       0.000000
  50      -0.000000
  51       0.000000
  52      -0.000007
  53       0.001001
Ene=     6.61852E-02
Spin= Alpha
Occup=  0.0000
   1      -0.000000
   2      -0.000000
   3       0.000000
   4      -0.000000
   5       0.018569
   6       0.000132
   7       0.000000
   8      -0.000000
   9      -0.000000
  10       0.012172
  11       0.000087
  12      -0.000000
  13      -0.000000
  14       0.054307
  15       0.000387
  16      -0.000000
  17       0.000000
  18      -0.057354
  19      -0.000409
  20       0.000000
  21       0.000000
  22       1.602826
  23       0.011420
  24       0.000000
  25      -0.000000
  26      -0.000000
  27      -0.000000
  28       0.000000
  29      -0.030484
  30      -0.000217
  31       0.000000
  32       0.000000
  33      -0.078138
  34      -0.000557
  35      -0.000000
  36      -0.000000
  37      -0.140197
  38      -0.000999
  39      -0.000000
  40      -0.000000
  41      -0.072230
  42      -0.000515
  43       0.000000
  44      -0.000000
  45      -0.844714
  46      -0.006019
  47       0.000000
  48       0.000000
  49      -0.000000
  50      -0.000000
  51       0.000000
  52       0.001001
  53       0.000007
Ene=     1.42963E-01
Spin= Alpha
Occup=  0.0000
   1       0.050517
   2      -0.182493
   3       2.045813
   4       7.256938
   5      -0.000000
   6      -0.000000
   7      -0.020576
   8      -0.019084
   9      -0.035717
  10      -0.000000
  11      -0.000000
  12      -0.021337
  13       0.092632
  14      -0.000000
  15      -0.000000
  16      -0.027205
  17       0.696036
  18      -0.000000
  19      -0.000000
  20       0.178597
  21      -8.736691
  22      -0.000000
  23      -0.000000
  24       4.371075
  25      -0.037281
  26      -0.037281
  27       0.076974
  28      -0.000000
  29       0.000000
  30       0.000000
  31       0.000275
  32       0.000914
  33       0.000000
  34       0.000000
  35      -0.021089
  36      -0.004499
  37       0.000000
  38       0.000000
  39       0.009691
  40      -0.311101
  41       0.000000
  42       0.000000
  43       0.110029
  44      -0.440938
  45       0.000000
  46       0.000000
  47      -0.649202
  48       0.003605
  49       0.003605
  50      -0.011368
  51       0.000000
  52       0.000000
  53       0.000000
Ene=     1.53723E-01
Spin= Alpha
Occup=  0.0000
   1       0.000000
   2      -0.000000
   3       0.000000
   4       0.000000
   5      -0.000089
   6       0.026547
   7      -0.000000
   8      -0.000000
   9      -0.000000
  10      -0.000536
  11       0.159532
  12      -0.000000
  13       0.000000
  14      -0.000610
  15       0.181773
  16      -0.000000
  17       0.000000
  18      -0.002830
  19       0.842940
  20       0.000000
  21      -0.000000
  22       0.000049
  23      -0.014495
  24       0.000000
  25      -0.000000
  26      -0.000000
  27       0.000000
  28      -0.000000
  29       0.000108
  30      -0.032186
  31      -0.000000
  32       0.000000
  33       0.000290
  34      -0.086484
  35      -0.000000
  36       0.000000
  37       0.000511
  38      -0.152142
  39      -0.000000
  40      -0.000000
  41       0.000705
  42      -0.209887
  43       0.000000
  44      -0.000000
  45       0.003365
  46      -1.002449
  47      -0.000000
  48       0.000000
  49       0.000000
  50       0.000000
  51      -0.000000
  52       0.000078
  53      -0.023280
Ene=     1.53723E-01
Spin= Alpha
Occup=  0.0000
   1       0.000000
   2      -0.000000
   3       0.000000
   4       0.000000
   5       0.026547
   6       0.000089
   7      -0.000000
   8      -0.000000
   9      -0.000000
  10       0.159532
  11       0.000536
  12      -0.000000
  13       0.000000
  14       0.181773
  15       0.000610
  16      -0.000000
  17       0.000000
  18       0.842940
  19       0.002830
  20      -0.000000
  21      -0.000000
  22      -0.014495
  23      -0.000049
  24       0.000000
  25      -0.000000
  26      -0.000000
  27       0.000000
  28       0.000000
  29      -0.032186
  30      -0.000108
  31      -0.000000
  32      -0.000000
  33      -0.086484
  34      -0.000290
  35       0.000000
  36      -0.000000
  37      -0.152142
  38      -0.000511
  39       0.000000
  40       0.000000
  41      -0.209887
  42      -0.000705
  43       0.000000
  44       0.000000
  45      -1.002449
  46      -0.003365
  47      -0.000000
  48      -0.000000
  49      -0.000000
  50      -0.000000
  51      -0.000000
  52      -0.023280
  53      -0.000078
Ene=     1.83769E-01
Spin= Alpha
Occup=  0.0000
   1      -0.041145
   2      -0.220397
   3      -1.955352
   4       4.062445
   5      -0.000000
   6       0.000000
   7       0.019055
   8      -0.021885
   9      -0.035484
  10      -0.000000
  11       0.000000
  12      -0.090264
  13       0.138251
  14      -0.000000
  15       0.000000
  16      -0.036253
  17      -0.195075
  18      -0.000000
  19       0.000000
  20      -1.368132
  21      -5.975302
  22       0.000000
  23      -0.000000
  24       1.247667
  25       0.028247
  26       0.028247
  27       0.003509
  28       0.000000
  29       0.000000
  30      -0.000000
  31       0.007103
  32       0.009705
  33       0.000000
  34      -0.000000
  35       0.062279
  36      -0.070391
  37       0.000000
  38      -0.000000
  39       0.098896
  40       0.594053
  41       0.000000
  42      -0.000000
  43      -0.005838
  44       3.144793
  45      -0.000000
  46       0.000000
  47      -2.298381
  48      -0.000084
  49      -0.000084
  50      -0.040793
  51      -0.000000
  52      -0.000000
  53      -0.000000
Ene=     2.54449E-01
Spin= Alpha
Occup=  0.0000
   1      -0.000000
   2       0.000000
   3      -0.000000
   4      -0.000000
   5       0.000023
   6      -0.023311
   7       0.000000
   8      -0.000000
   9      -0.000000
  10       0.000081
  11      -0.084128
  12      -0.000000
  13      -0.000000
  14       0.000145
  15      -0.149920
  16      -0.000000
  17       0.000000
  18       0.000503
  19      -0.518831
  20      -0.000000
  21       0.000000
  22      -0.001407
  23       1.452873
  24      -0.000000
  25      -0.000000
  26      -0.000000
  27      -0.000000
  28       0.000000
  29      -0.000032
  30       0.033254
  31      -0.000000
  32      -0.000000
  33      -0.000170
  34       0.175545
  35       0.000000
  36      -0.000000
  37      -0.000172
  38       0.177932
  39       0.000000
  40       0.000000
  41      -0.000894
  42       0.922828
  43       0.000000
  44      -0.000000
  45       0.001928
  46      -1.990865
  47       0.000000
  48      -0.000000
  49      -0.000000
  50      -0.000000
  51      -0.000000
  52       0.000007
  53      -0.006771
Ene=     2.54449E-01
Spin= Alpha
Occup=  0.0000
   1      -0.000000
   2      -0.000000
   3      -0.000000
   4      -0.000000
   5       0.023311
   6       0.000023
   7       0.000000
   8      -0.000000
   9      -0.000000
  10       0.084128
  11       0.000081
  12      -0.000000
  13       0.000000
  14       0.149920
  15       0.000145
  16      -0.000000
  17       0.000000
  18       0.518831
  19       0.000503
  20      -0.000000
  21       0.000000
  22      -1.452873
  23      -0.001407
  24      -0.000000
  25      -0.000000
  26      -0.000000
  27      -0.000000
  28       0.000000
  29      -0.033254
  30      -0.000032
  31       0.000000
  32       0.000000
  33      -0.175545
  34      -0.000170
  35      -0.000000
  36      -0.000000
  37      -0.177932
  38      -0.000172
  39       0.000000
  40       0.000000
  41      -0.922828
  42      -0.000894
  43      -0.000000
  44       0.000000
  45       1.990865
  46       0.001928
  47       0.000000
  48       0.000000
  49      -0.000000
  50       0.000000
  51      -0.000000
  52       0.006771
  53       0.000007
Ene=     2.59972E-01
Spin= Alpha
Occup=  0.0000
   1       0.068582
   2       0.298480
   3       3.487981
   4       3.484564
   5       0.000000
   6      -0.000000
   7      -0.003941
   8       0.027422
   9       0.054365
  10       0.000000
  11       0.000000
  12       0.037920
  13      -0.014243
  14       0.000000
  15       0.000000
  16       0.043123
  17      -0.756836
  18       0.000000
  19       0.000000
  20       1.473662
  21      -1.197504
  22      -0.000000
  23       0.000000
  24       4.982489
  25       0.017077
  26       0.017077
  27       0.050322
  28      -0.000000
  29      -0.000000
  30      -0.000000
  31      -0.032354
  32      -0.059579
  33      -0.000000
  34       0.000000
  35       0.011285
  36       0.158838
  37      -0.000000
  38       0.000000
  39      -0.069131
  40       0.142818
  41      -0.000000
  42       0.000000
  43       0.679862
  44      -5.714715
  45       0.000000
  46      -0.000000
  47      -1.430019
  48      -0.007452
  49      -0.007452
  50      -0.025603
  51       0.000000
  52      -0.000000
  53       0.000000
Ene=     3.09265E-01
Spin= Alpha
Occup=  0.0000
   1       0.010480
   2      -0.371373
   3       2.678684
   4       3.423863
   5       0.000000
   6      -0.000000
   7      -0.052093
   8       0.025056
   9       0.057856
  10       0.000000
  11      -0.000000
  12       0.034772
  13       0.066492
  14       0.000000
  15      -0.000000
  16       0.057253
  17      -3.375781
  18       0.000000
  19      -0.000000
  20      -0.218228
  21      -9.895493
  22      -0.000000
  23       0.000000
  24       1.199836
  25       0.062061
  26       0.062061
  27       0.116460
  28       0.000000
  29       0.000000
  30       0.000000
  31       0.025100
  32       0.048927
  33      -0.000000
  34       0.000000
  35      -0.037041
  36      -0.094979
  37      -0.000000
  38       0.000000
  39       0.043737
  40      -0.752199
  41      -0.000000
  42       0.000000
  43      -0.500771
  44       7.987718
  45       0.000000
  46      -0.000000
  47      -2.759065
  48       0.035069
  49       0.035069
  50      -0.013681
  51      -0.000000
  52       0.000000
  53      -0.000000
Ene=     5.13580E-01
Spin= Alpha
Occup=  0.0000
   1      -0.136353
   2      -0.980637
   3       4.717361
   4       1.875352
   5       0.000000
   6      -0.000000
   7      -0.007715
   8      -0.024070
   9      -0.048549
  10       0.000000
  11      -0.000000
  12      -0.022491
  13       0.003779
  14       0.000000
  15      -0.000000
  16      -0.115173
  17       4.650761
  18      -0.000000
  19       0.000000
  20       3.821097
  21       0.345906
  22      -0.000000
  23       0.000000
  24       3.385836
  25      -0.008550
  26      -0.008550
  27      -0.049737
  28      -0.000000
  29      -0.000000
  30       0.000000
  31       0.016529
  32       0.034284
  33      -0.000000
  34      -0.000000
  35       0.124274
  36       0.036638
  37      -0.000000
  38      -0.000000
  39       0.157963
  40      -3.323962
  41       0.000000
  42       0.000000
  43       1.803796
  44      -7.187960
  45       0.000000
  46      -0.000000
  47       0.856742
  48       0.038105
  49       0.038105
  50       0.007352
  51       0.000000
  52      -0.000000
  53       0.000000
Ene=     6.77951E-01
Spin= Alpha
Occup=  0.0000
   1       0.000000
   2      -0.000000
   3      -0.000000
   4      -0.000000
   5       0.000009
   6      -0.011627
   7      -0.000000
   8       0.000000
   9       0.000000
  10       0.000183
  11      -0.228835
  12       0.000000
  13       0.000000
  14       0.000801
  15      -1.003690
  16       0.000000
  17      -0.000000
  18      -0.001289
  19       1.614680
  20      -0.000000
  21      -0.000000
  22       0.000381
  23      -0.477912
  24      -0.000000
  25      -0.000000
  26      -0.000000
  27       0.000000
  28      -0.000000
  29       0.000015
  30      -0.019329
  31      -0.000000
  32      -0.000000
  33      -0.000019
  34       0.024338
  35      -0.000000
  36       0.000000
  37      -0.000021
  38       0.025966
  39       0.000000
  40       0.000000
  41       0.000018
  42      -0.022939
  43      -0.000000
  44       0.000000
  45       0.000190
  46      -0.238633
  47      -0.000000
  48      -0.000000
  49      -0.000000
  50      -0.000000
  51       0.000000
  52      -0.000031
  53       0.038247
Ene=     6.77951E-01
Spin= Alpha
Occup=  0.0000
   1      -0.000000
   2       0.000000
   3       0.000000
   4      -0.000000
   5       0.011627
   6       0.000009
   7       0.000000
   8      -0.000000
   9      -0.000000
  10       0.228835
  11       0.000183
  12      -0.000000
  13       0.000000
  14       1.003690
  15       0.000801
  16      -0.000000
  17       0.000000
  18      -1.614680
  19      -0.001289
  20       0.000000
  21       0.000000
  22       0.477912
  23       0.000381
  24      -0.000000
  25       0.000000
  26       0.000000
  27      -0.000000
  28      -0.000000
  29       0.019329
  30       0.000015
  31       0.000000
  32       0.000000
  33      -0.024338
  34      -0.000019
  35      -0.000000
  36       0.000000
  37      -0.025966
  38      -0.000021
  39      -0.000000
  40      -0.000000
  41       0.022939
  42       0.000018
  43       0.000000
  44      -0.000000
  45       0.238633
  46       0.000190
  47       0.000000
  48       0.000000
  49       0.000000
  50       0.000000
  51       0.000000
  52      -0.038247
  53      -0.000031
Ene=     7.22497E-01
Spin= Alpha
Occup=  0.0000
   1      -0.007954
   2       2.062975
   3       2.484178
   4      -3.294937
   5       0.000000
   6      -0.000000
   7       0.165643
   8      -0.026704
   9      -0.038456
  10      -0.000000
  11      -0.000000
  12      -0.103351
  13       0.348694
  14      -0.000000
  15      -0.000000
  16      -0.466401
  17       1.634792
  18       0.000000
  19       0.000000
  20       6.756317
  21       6.221070
  22      -0.000000
  23      -0.000000
  24      -0.881971
  25       0.111502
  26       0.111502
  27      -0.189917
  28      -0.000000
  29      -0.000000
  30       0.000000
  31       0.015489
  32       0.038461
  33       0.000000
  34       0.000000
  35       0.023066
  36       0.119964
  37       0.000000
  38       0.000000
  39      -0.148860
  40      -4.568545
  41       0.000000
  42      -0.000000
  43       1.241149
  44      -4.814440
  45      -0.000000
  46       0.000000
  47       1.529540
  48       0.053557
  49       0.053557
  50       0.088902
  51      -0.000000
  52      -0.000000
  53       0.000000
Ene=     8.85423E-01
Spin= Alpha
Occup=  0.0000
   1      -0.059166
   2      -0.588255
   3       1.900890
   4       1.177122
   5       0.000000
   6       0.000000
   7       0.046143
   8      -0.095541
   9      -0.118914
  10      -0.000000
  11      -0.000000
  12      -0.001401
  13       1.804755
  14      -0.000000
  15       0.000000
  16       0.115435
  17      -3.767430
  18       0.000000
  19       0.000000
  20      -0.273627
  21      -2.835397
  22      -0.000000
  23      -0.000000
  24       1.207781
  25       0.329879
  26       0.329879
  27       0.300187
  28      -0.000000
  29       0.000000
  30       0.000000
  31       0.015778
  32       0.026622
  33       0.000000
  34       0.000000
  35      -0.014952
  36      -0.030661
  37       0.000000
  38       0.000000
  39      -0.121749
  40      -0.042009
  41      -0.000000
  42      -0.000000
  43       1.104680
  44       2.154509
  45       0.000000
  46       0.000000
  47      -1.923285
  48      -0.019782
  49      -0.019782
  50       0.017272
  51       0.000000
  52       0.000000
  53      -0.000000
Ene=     9.36757E-01
Spin= Alpha
Occup=  0.0000
   1      -0.020913
   2      -1.921032
   3      -0.878707
   4      -0.197483
   5      -0.000000
   6       0.000000
   7      -0.025646
   8      -0.018786
   9      -0.020652
  10      -0.000000
  11      -0.000000
  12      -0.153097
  13       0.192834
  14       0.000000
  15      -0.000000
  16      -0.948386
  17      -8.254129
  18       0.000000
  19       0.000000
  20      -5.896717
  21      -3.333734
  22      -0.000000
  23      -0.000000
  24      -1.311818
  25       0.041462
  26       0.041462
  27       0.138585
  28       0.000000
  29       0.000000
  30      -0.000000
  31      -0.045607
  32      -0.083542
  33       0.000000
  34       0.000000
  35       0.021665
  36       0.048296
  37       0.000000
  38      -0.000000
  39       0.263112
  40       6.652045
  41      -0.000000
  42       0.000000
  43      -4.329468
  44       7.245007
  45       0.000000
  46      -0.000000
  47      -0.937354
  48      -0.022832
  49      -0.022832
  50      -0.016097
  51       0.000000
  52       0.000000
  53      -0.000000
Ene=     1.03760E+00
Spin= Alpha