[Molden Format]
[Atoms] Angs
E+       1       1     0.00000000     0.00000000     0.00000000
E+       2       1     0.00000000     0.00000000     2.00121982
E+       3       1     0.00000000     0.00000000     4.13094101
[GTO]
  1 0
s  1 1.00
   1.0000000000E-04   1.0000000000E+00
s  1 1.00
   3.0000000000E-04   1.0000000000E+00
s  1 1.00
   9.0000000000E-04   1.0000000000E+00
s  1 1.00
   2.7000000000E-03   1.0000000000E+00
s  1 1.00
   8.1000000000E-03   1.0000000000E+00
s  1 1.00
   2.4300000000E-02   1.0000000000E+00
s  1 1.00
   7.2900000000E-02   1.0000000000E+00
s  1 1.00
   2.1870000000E-01   1.0000000000E+00
s  1 1.00
   6.5610000000E-01   1.0000000000E+00
s  1 1.00
   1.9683000000E+00   1.0000000000E+00
 
  2 0
s  1 1.00
   1.0000000000E-04   1.0000000000E+00
s  1 1.00
   3.0000000000E-04   1.0000000000E+00
s  1 1.00
   9.0000000000E-04   1.0000000000E+00
s  1 1.00
   2.7000000000E-03   1.0000000000E+00
s  1 1.00
   8.1000000000E-03   1.0000000000E+00
s  1 1.00
   2.4300000000E-02   1.0000000000E+00
s  1 1.00
   7.2900000000E-02   1.0000000000E+00
s  1 1.00
   2.1870000000E-01   1.0000000000E+00
s  1 1.00
   6.5610000000E-01   1.0000000000E+00
s  1 1.00
   1.9683000000E+00   1.0000000000E+00
 
  3 0
s  1 1.00
   1.0000000000E-04   1.0000000000E+00
s  1 1.00
   3.0000000000E-04   1.0000000000E+00
s  1 1.00
   9.0000000000E-04   1.0000000000E+00
s  1 1.00
   2.7000000000E-03   1.0000000000E+00
s  1 1.00
   8.1000000000E-03   1.0000000000E+00
s  1 1.00
   2.4300000000E-02   1.0000000000E+00
s  1 1.00
   7.2900000000E-02   1.0000000000E+00
s  1 1.00
   2.1870000000E-01   1.0000000000E+00
s  1 1.00
   6.5610000000E-01   1.0000000000E+00
s  1 1.00
   1.9683000000E+00   1.0000000000E+00
 
 
[MO]
Ene=    -2.73477E-03
Spin= Alpha
Occup=  1.0000
   1       1.131677
   2      -0.820528
   3      -1.636148
   4      -2.058633
   5      -0.800274
   6      -0.182868
   7      -0.033813
   8       0.007444
   9      -0.000055
  10       0.001120
  11      -2.167934
  12       1.637895
  13       4.137616
  14       5.353035
  15       2.326164
  16       0.625631
  17       0.101101
  18       0.010177
  19       0.013272
  20       0.000106
  21       1.035858
  22      -0.828333
  23      -2.691941
  24      -3.655418
  25      -1.857604
  26      -0.626702
  27      -0.143182
  28       0.037909
  29       0.026720
  30       0.000272
Ene=     6.97309E-05
Spin= Alpha
Occup=  0.0000
   1    -489.360209
   2      25.140493
   3      -6.767282
   4       0.421526
   5       0.047015
   6       0.017901
   7       0.003528
   8      -0.000841
   9       0.000032
  10      -0.000117
  11     974.422404
  12     -49.265489
  13      13.591318
  14      -1.024404
  15      -0.159931
  16      -0.065216
  17      -0.009554
  18      -0.001121
  19      -0.001299
  20      -0.000014
  21    -486.224911
  22      24.403345
  23      -6.852373
  24       0.656190
  25       0.148293
  26       0.064817
  27       0.013892
  28      -0.003719
  29      -0.002645
  30      -0.000026
Ene=     2.73353E-04
Spin= Alpha
Occup=  0.0000
   1     -32.556608
   2     -90.753448
   3       7.748917
   4      -1.039772
   5       0.060488
   6      -0.012138
   7       0.000187
   8      -0.000034
   9       0.000030
  10       0.000011
  11     111.511742
  12     165.897446
  13     -13.643333
  14       1.803543
  15      -0.067478
  16       0.023115
  17       0.001008
  18       0.000360
  19       0.000179
  20       0.000011
  21     -77.973157
  22     -75.857697
  23       6.003051
  24      -0.800995
  25       0.000780
  26      -0.013572
  27      -0.003288
  28       0.000927
  29       0.000429
  30       0.000015
Ene=     3.54469E-04
Spin= Alpha
Occup=  0.0000
   1   -1975.907193
   2     114.259749
   3      -0.439218
   4      -0.482005
   5       0.035147
   6      -0.026207
   7      -0.000659
   8       0.000224
   9       0.000075
  10       0.000069
  11    3827.007550
  12    -224.958973
  13       1.140528
  14       0.940689
  15       0.019772
  16       0.064603
  17       0.005656
  18       0.000956
  19       0.000961
  20       0.000014
  21   -1851.262177
  22     110.149309
  23      -0.490795
  24      -0.578432
  25      -0.057100
  26      -0.058666
  27      -0.008985
  28       0.002529
  29       0.002044
  30       0.000009
Ene=     6.48509E-04
Spin= Alpha
Occup=  0.0000
   1    -204.237302
   2    -295.225683
   3      15.858294
   4      -2.148110
   5       0.281688
   6       0.027026
   7       0.005673
   8      -0.001091
   9      -0.000126
  10      -0.000204
  11     366.110187
  12     597.511455
  13     -32.784380
  14       4.202014
  15      -0.771918
  16      -0.094435
  17      -0.022282
  18      -0.001669
  19      -0.002793
  20      -0.000001
  21    -160.620658
  22    -304.580128
  23      17.473137
  24      -2.048256
  25       0.570061
  26       0.105349
  27       0.030277
  28      -0.007862
  29      -0.005230
  30      -0.000070
Ene=     1.12999E-03
Spin= Alpha
Occup=  0.0000
   1     124.855270
   2     172.005720
   3     -46.112685
   4       2.998368
   5      -0.434073
   6       0.018710
   7      -0.005752
   8       0.000906
   9      -0.000192
  10       0.000072
  11    -272.780991
  12    -295.941998
  13      83.072976
  14      -4.929368
  15       0.739619
  16      -0.004990
  17       0.009928
  18      -0.000526
  19       0.000728
  20      -0.000027
  21     147.048398
  22     126.002069
  23     -37.844545
  24       1.998550
  25      -0.340789
  26      -0.025909
  27      -0.005681
  28       0.001068
  29       0.001426
  30      -0.000023
Ene=     1.34300E-03
Spin= Alpha
Occup=  0.0000
   1   -1100.232279
   2     762.964798
   3     -23.380034
   4      -0.608987
   5       0.413849
   6      -0.016915
   7       0.012162
   8      -0.002425
   9       0.000341
  10      -0.000226
  11    2131.405118
  12   -1476.018979
  13      46.969165
  14       0.600815
  15      -0.826779
  16      -0.036782
  17      -0.021861
  18      -0.001009
  19      -0.002050
  20      -0.000003
  21   -1031.247475
  22     712.362418
  23     -22.447603
  24      -0.233417
  25       0.569708
  26       0.055502
  27       0.028428
  28      -0.006996
  29      -0.003770
  30      -0.000090
Ene=     2.67535E-03
Spin= Alpha
Occup=  0.0000
   1    -112.012004
   2    -120.419478
   3     144.038879
   4      -5.847906
   5       0.349123
   6      -0.067328
   7      -0.015370
   8       0.004804
   9      -0.000517
  10       0.000537
  11     199.574210
  12     261.578441
  13    -298.606673
  14      14.095077
  15      -0.683612
  16       0.303867
  17       0.025726
  18       0.005836
  19       0.004637
  20       0.000098
  21     -86.955856
  22    -143.093582
  23     156.768281
  24      -8.768168
  25       0.248949
  26      -0.300578
  27      -0.040968
  28       0.011844
  29       0.010139
  30       0.000019
Ene=     3.67190E-03
Spin= Alpha
Occup=  0.0000
   1     165.166671
   2      64.095785
   3    -129.533432
   4      19.132957
   5      -1.114702
   6       0.174409
   7      -0.009317
   8       0.001944
   9      -0.000390
  10       0.000048
  11    -334.234085
  12     -99.179840
  13     228.821611
  14     -33.636538
  15       1.622855
  16      -0.289869
  17       0.004816
  18      -0.003552
  19      -0.000268
  20      -0.000149
  21     168.502491
  22      37.073688
  23    -102.018832
  24      15.427550
  25      -0.539015
  26       0.143860
  27       0.017448
  28      -0.005599
  29      -0.002205
  30      -0.000107
Ene=     4.44756E-03
Spin= Alpha
Occup=  0.0000
   1     513.338266
   2    -476.603293
   3     225.020585
   4      -0.120823
   5      -0.543040
   6       0.231284
   7      -0.013731
   8       0.002698
   9      -0.001135
  10      -0.000124
  11    -992.961365
  12     919.727355
  13    -432.405743
  14       0.623708
  15       0.439566
  16      -0.437435
  17      -0.013822
  18      -0.004220
  19      -0.004156
  20      -0.000057
  21     479.639955
  22    -442.518781
  23     205.501148
  24       1.324765
  25      -0.183562
  26       0.390271
  27       0.019204
  28      -0.006624
  29      -0.010003
  30       0.000145
Ene=     9.40961E-03
Spin= Alpha
Occup=  0.0000
   1       6.103318
   2      72.432547
   3     -90.629149
   4      50.717519
   5      -0.474542
   6      -0.085122
   7       0.030398
   8      -0.006774
   9       0.003710
  10       0.000146
  11      -2.705517
  12    -156.686733
  13     194.738258
  14    -111.757605
  15       3.526059
  16      -0.035857
  17       0.056157
  18       0.004270
  19       0.009398
  20      -0.000165
  21      -3.611603
  22      84.959622
  23    -105.254681
  24      61.942869
  25      -3.147517
  26      -0.021106
  27      -0.095464
  28       0.025434
  29       0.012225
  30       0.000455
Ene=     1.13159E-02
Spin= Alpha
Occup=  0.0000
   1    -138.476391
   2       2.256516
   3      81.009747
   4     -70.692661
   5       7.420596
   6      -0.418320
   7       0.069341
   8      -0.008817
   9       0.002414
  10      -0.000482
  11     273.937444
  12     -14.832458
  13    -143.047477
  14     125.206004
  15     -12.777714
  16       0.535406
  17      -0.113987
  18       0.012506
  19      -0.004947
  20       0.000458
  21    -135.137253
  22      11.295599
  23      64.624765
  24     -57.383808
  25       6.146024
  26      -0.094860
  27       0.053383
  28      -0.006695
  29      -0.007273
  30       0.000117
Ene=     1.48246E-02
Spin= Alpha
Occup=  0.0000
   1     236.261073
   2    -220.391899
   3     137.082140
   4     -52.283073
   5      -2.957453
   6       0.315187
   7      -0.113148
   8       0.020894
   9      -0.004418
  10       0.001377
  11    -455.451806
  12     422.658599
  13    -260.505716
  14      97.623191
  15       5.845713
  16      -0.090286
  17       0.144848
  18       0.004953
  19       0.007487
  20       0.000195
  21     219.190319
  22    -201.910591
  23     121.981825
  24     -42.382132
  25      -5.384405
  26       0.140475
  27      -0.230703
  28       0.053928
  29       0.012281
  30       0.001289
Ene=     2.92145E-02
Spin= Alpha
Occup=  0.0000
   1     -39.653734
   2      55.131874
   3     -44.980706
   4      26.905000
   5      -8.293529
   6      -1.194583
   7       0.165767
   8      -0.060490
   9       0.010825
  10      -0.003934
  11      81.594068
  12    -115.324657
  13      98.232819
  14     -64.742833
  15      25.626418
  16       0.211125
  17       0.040231
  18      -0.033023
  19      -0.009905
  20      -0.000432
  21     -41.994632
  22      60.303531
  23     -53.265119
  24      37.413212
  25     -16.406058
  26       0.474113
  27      -0.030993
  28      -0.003237
  29      -0.017323
  30       0.000471
Ene=     3.43826E-02
Spin= Alpha
Occup=  0.0000
   1     -87.600818
   2      13.382699
   3      36.379892
   4     -49.584900
   5      32.378883
   6      -2.439490
   7       0.156272
   8      -0.018151
   9       0.002043
  10      -0.000575
  11     171.557527
  12     -29.299401
  13     -65.541390
  14      89.606045
  15     -57.256126
  16       4.315632
  17      -0.265770
  18       0.056899
  19      -0.006691
  20       0.002132
  21     -83.784530
  22      15.221241
  23      30.684706
  24     -42.430770
  25      27.097214
  26      -2.215075
  27       0.015379
  28       0.019583
  29       0.012224
  30       0.000244
Ene=     5.16743E-02
Spin= Alpha
Occup=  0.0000
   1     107.921090
   2     -98.535436
   3      61.381069
   4     -30.430429
   5       8.665402
   6       1.993765
   7      -0.152126
   8       0.032596
   9      -0.008437
  10       0.000203
  11    -207.211235
  12     187.501788
  13    -114.828583
  14      55.009004
  15     -14.333694
  16      -3.897664
  17      -0.046243
  18       0.002299
  19      -0.024233
  20       0.000665
  21      99.288287
  22     -88.795317
  23      52.722837
  24     -22.626925
  25       2.144432
  26       4.926315
  27      -0.317959
  28       0.062962
  29      -0.070744
  30       0.004659
Ene=     8.29380E-02
Spin= Alpha
Occup=  0.0000
   1     -35.119960
   2      39.420469
   3     -28.124588
   4      15.426727
   5      -5.194621
   6      -0.849276
   7       0.969436
   8      -0.165740
   9       0.059183
  10      -0.005389
  11      70.451779
  12     -80.623284
  13      60.057066
  14     -36.957563
  15      18.605292
  16      -5.338607
  17      -0.158108
  18       0.014332
  19       0.045421
  20      -0.002691
  21     -35.354395
  22      41.218698
  23     -31.804498
  24      20.943437
  25     -11.916315
  26       4.182539
  27      -0.022575
  28       0.032372
  29       0.004484
  30       0.001907
Ene=     1.02409E-01
Spin= Alpha
Occup=  0.0000
   1     -49.406952
   2      13.050024
   3      12.925818
   4     -21.996787
   5      21.255613
   6     -12.224755
   7       0.738718
   8      -0.077631
   9       0.019348
  10      -0.003451
  11      96.585407
  12     -26.838948
  13     -22.781314
  14      39.477421
  15     -37.253061
  16      20.615700
  17      -1.458318
  18       0.174089
  19      -0.058078
  20       0.007642
  21     -47.096795
  22      13.451123
  23      10.610527
  24     -18.776992
  25      17.698250
  26      -9.571456
  27       0.578153
  28      -0.046101
  29      -0.023153
  30      -0.000143
Ene=     1.91367E-01
Spin= Alpha
Occup=  0.0000
   1      49.764347
   2     -45.798763
   3      28.542749
   4     -14.489960
   5       5.636685
   6      -0.673867
   7      -0.998333
   8       0.125692
   9      -0.029398
  10       0.006007
  11     -95.321029
  12      86.778447
  13     -52.961112
  14      25.736046
  15      -9.066617
  16       0.622818
  17       1.367965
  18       0.124831
  19      -0.000756
  20       0.005993
  21      45.557795
  22     -40.907709
  23      24.098135
  24     -10.328761
  25       1.312463
  26       3.785337
  27      -4.026069
  28       0.804646
  29      -0.048044
  30       0.025238
Ene=     2.40199E-01
Spin= Alpha
Occup=  0.0000
   1     -21.873451
   2      24.422274
   3     -17.269145
   4       9.400820
   5      -3.292970
   6      -0.905754
   7       2.337177
   8      -0.771432
   9       0.136460
  10      -0.037264
  11      43.684425
  12     -49.603114
  13      36.428689
  14     -22.015624
  15      11.563027
  16      -5.191809
  17       1.818404
  18      -0.432722
  19       0.008576
  20      -0.009584
  21     -21.824835
  22      25.190189
  23     -19.079825
  24      12.245076
  25      -7.201806
  26       3.831189
  27      -1.394611
  28       0.137549
  29      -0.015540
  30       0.003609
Ene=     2.91163E-01
Spin= Alpha
Occup=  0.0000
   1     -27.306734
   2       8.730873
   3       5.098971
   4     -10.143034
   5      10.581957
   6      -8.831873
   7       4.811436
   8      -0.383772
   9       0.044259
  10      -0.012939
  11      53.330152
  12     -17.675495
  13      -8.780555
  14      18.132611
  15     -18.498368
  16      14.840707
  17      -7.881572
  18       1.065243
  19      -0.124532
  20       0.027685
  21     -25.982544
  22       8.772719
  23       4.068737
  24      -8.660447
  25       8.852448
  26      -6.896007
  27       3.196836
  28      -0.105330
  29       0.042574
  30      -0.003028
Ene=     7.49634E-01
Spin= Alpha
Occup=  0.0000
   1      25.203574
   2     -23.729909
   3      14.736771
   4      -7.021645
   5       1.960591
   6       1.084162
   7      -2.849645
   8       2.799115
   9      -0.762674
  10       0.077466
  11     -49.163319
  12      46.548288
  13     -29.353709
  14      14.799891
  15      -5.772702
  16       1.350525
  17      -0.066885
  18       0.470417
  19      -0.471477
  20       0.031339
  21      23.963020
  22     -22.789979
  23      14.467283
  24      -7.325533
  25       2.707710
  26      -0.066887
  27      -1.332634
  28       1.531652
  29      -0.522633
  30       0.042931
Ene=     8.03230E-01
Spin= Alpha
Occup=  0.0000
   1     -10.370896
   2      10.048351
   3      -6.739902
   4       3.962988
   5      -2.307978
   6       1.613277
   7      -1.527238
   8       1.295970
   9      -0.405927
  10       0.054978
  11      19.241438
  12     -17.966268
  13      11.189595
  14      -5.563212
  15       2.127098
  16      -0.475231
  17      -0.019250
  18      -0.054266
  19       0.129239
  20      -0.009238
  21      -8.871466
  22       7.905701
  23      -4.389549
  24       1.422709
  25       0.606614
  26      -2.037623
  27       3.156927
  28      -3.167443
  29       1.146890
  30      -0.114018
Ene=     9.71565E-01
Spin= Alpha
Occup=  0.0000
   1      12.053617
   2      -2.463464
   3      -3.897916
   4       5.700572
   5      -5.299857
   6       4.218853
   7      -3.049856
   8       1.622903
   9      -0.196982
  10       0.034520
  11     -23.401335
  12       4.863998
  13       7.376870
  14     -10.761192
  15       9.919629
  16      -7.963145
  17       6.275332
  18      -4.337309
  19       1.305415
  20      -0.143725
  21      11.325952
  22      -2.313229
  23      -3.666008
  24       5.361039
  25      -4.981679
  26       3.948934
  27      -2.802964
  28       1.447808
  29      -0.193863
  30       0.028692
Ene=     2.23172E+00
Spin= Alpha
Occup=  0.0000
   1     -10.274913
   2       9.260081
   3      -5.412508
   4       2.241367
   5      -0.199010
   6      -1.051630
   7       2.018305
   8      -2.965156
   9       2.778395
  10      -0.555014
  11      20.266389
  12     -18.567358
  13      11.309124
  14      -5.409127
  15       1.864350
  16      -0.209474
  17      -0.215802
  18      -0.049716
  19       0.374763
  20      -0.080384
  21      -9.992026
  22       9.293067
  23      -5.831298
  24       2.980493
  25      -1.225679
  26       0.335607
  27       0.008765
  28      -0.048474
  29      -0.012047
  30       0.003580
Ene=     2.98643E+00
Spin= Alpha
Occup=  0.0000
   1      -6.593068
   2       7.943093
   3      -6.106598
   4       3.877974
   5      -2.187869
   6       1.149748
   7      -0.632314
   8       0.454408
   9      -0.351043
  10       0.091923
  11      12.495838
  12     -14.896027
  13      11.224717
  14      -6.869770
  15       3.647715
  16      -1.823387
  17       1.201638
  18      -1.439134
  19       1.644535
  20      -0.463181
  21      -5.907753
  22       6.958869
  23      -5.100954
  24       2.893670
  25      -1.158758
  26      -0.073169
  27       1.074929
  28      -2.116304
  29       2.529578
  30      -0.755197
Ene=     3.32610E+00
Spin= Alpha
Occup=  0.0000
   1       7.609618
   2      -3.277425
   3      -0.284660
   4       1.704423
   5      -1.892012
   6       1.573160
   7      -1.147339
   8       0.768938
   9      -0.432290
  10       0.112788
  11     -14.634507
  12       6.160776
  13       0.756831
  14      -3.489323
  15       3.842566
  16      -3.309604
  17       2.827934
  18      -2.822781
  19       2.673453
  20      -0.807940
  21       7.015499
  22      -2.842161
  23      -0.567766
  24       1.955370
  25      -2.199283
  26       2.013840
  27      -1.839204
  28       1.877761
  29      -1.777478
  30       0.567645
Ene=     7.36658E+00
Spin= Alpha
Occup=  0.0000
   1      -5.709565
   2       4.658662
   3      -2.405449
   4       0.745748
   5       0.230141
   6      -0.772407
   7       1.186786
   8      -1.780482
   9       2.530223
  10      -2.076959
  11      11.260914
  12      -9.373258
  13       5.117247
  14      -2.032789
  15       0.349944
  16       0.337287
  17      -0.462055
  18       0.348149
  19      -0.186548
  20       0.070923
  21      -5.550388
  22       4.702707
  23      -2.669333
  24       1.179047
  25      -0.347817
  26      -0.016341
  27       0.107718
  28      -0.064621
  29       0.005028
  30      -0.002991
Ene=     1.31491E+01
Spin= Alpha
Occup=  0.0000
   1       1.293304
   2       0.894469
   3      -1.840021
   4       1.774602
   5      -1.344883
   6       0.882708
   7      -0.510514
   8       0.241863
   9      -0.061188
  10      -0.016311
  11      -2.498175
  12      -1.743895
  13       3.569369
  14      -3.440789
  15       2.640043
  16      -1.868346
  17       1.466713
  18      -1.589413
  19       2.117850
  20      -1.964376
  21       1.199495
  22       0.868380
  23      -1.764336
  24       1.708951
  25      -1.311975
  26       0.887635
  27      -0.556758
  28       0.344958
  29      -0.244160
  30       0.168214
Ene=     1.40475E+01
Spin= Alpha
Occup=  0.0000
   1       4.700662
   2      -4.138868
   3       2.452599
   4      -1.156970
   5       0.403938
   6      -0.053631
   7      -0.053698
   8       0.040513
   9      -0.010622
  10       0.015825
  11      -8.969396
  12       7.775067
  13      -4.459690
  14       1.941771
  15      -0.511712
  16      -0.103913
  17       0.230502
  18      -0.125708
  19      -0.032233
  20       0.096720
  21       4.268380
  22      -3.628035
  23       1.975342
  24      -0.700451
  25      -0.079270
  26       0.529847
  27      -0.873864
  28       1.344394
  29      -1.994540
  30       1.927190
