[Molden Format]
[Atoms] Angs
H       1       1     0.00000000     0.00000000     0.00000000
C       2       6     0.00000000     0.00000000     2.00121982
N       3       7     0.00000000     0.00000000     4.13094101
[GTO]
  1 0
s  3 1.00
   3.3865000000E+01   2.5493800000E-02
   5.0947900000E+00   1.9037300000E-01
   1.1587900000E+00   8.5216100000E-01
s  1 1.00
   3.2584000000E-01   1.0000000000E+00
s  1 1.00
   1.0274100000E-01   1.0000000000E+00
s  1 1.00
   3.6000000000E-02   1.0000000000E+00
p  1 1.00
   7.5000000000E-01   1.0000000000E+00
 
  2 0
s  6 1.00
   4.5632400000E+03   1.9666500000E-03
   6.8202400000E+02   1.5230600000E-02
   1.5497300000E+02   7.6126900000E-02
   4.4455300000E+01   2.6080100000E-01
   1.3029000000E+01   6.1646200000E-01
   1.8277300000E+00   2.2100600000E-01
s  3 1.00
   2.0964200000E+01   1.1466000000E-01
   4.8033100000E+00   9.1999900000E-01
   1.4593300000E+00  -3.0306800000E-03
p  3 1.00
   2.0964200000E+01   4.0248700000E-02
   4.8033100000E+00   2.3759400000E-01
   1.4593300000E+00   8.1585400000E-01
s  1 1.00
   4.8345600000E-01   1.0000000000E+00
p  1 1.00
   4.8345600000E-01   1.0000000000E+00
s  1 1.00
   1.4558500000E-01   1.0000000000E+00
p  1 1.00
   1.4558500000E-01   1.0000000000E+00
s  1 1.00
   4.3800000000E-02   1.0000000000E+00
p  1 1.00
   4.3800000000E-02   1.0000000000E+00
d  1 1.00
   6.2600000000E-01   1.0000000000E+00
 
  3 0
s  6 1.00
   6.2934800000E+03   1.9697900000E-03
   9.4904400000E+02   1.4961300000E-02
   2.1877600000E+02   7.3500600000E-02
   6.3691600000E+01   2.4893700000E-01
   1.8828200000E+01   6.0246000000E-01
   2.7202300000E+00   2.5620200000E-01
s  3 1.00
   3.0633100000E+01   1.1190600000E-01
   7.0261400000E+00   9.2166600000E-01
   2.1120500000E+00  -2.5691900000E-03
p  3 1.00
   3.0633100000E+01   3.8311900000E-02
   7.0261400000E+00   2.3740300000E-01
   2.1120500000E+00   8.1759200000E-01
s  1 1.00
   6.8400900000E-01   1.0000000000E+00
p  1 1.00
   6.8400900000E-01   1.0000000000E+00
s  1 1.00
   2.0087800000E-01   1.0000000000E+00
p  1 1.00
   2.0087800000E-01   1.0000000000E+00
s  1 1.00
   6.3900000000E-02   1.0000000000E+00
p  1 1.00
   6.3900000000E-02   1.0000000000E+00
d  1 1.00
   9.1300000000E-01   1.0000000000E+00
 
 
[MO]
Ene=    -1.55933E+01
Spin= Alpha
Occup=  2.0000
   1      -0.000111
   2      -0.000490
   3      -0.000453
   4      -0.000044
   5      -0.000000
   6      -0.000000
   7      -0.000222
   8       0.000110
   9      -0.000057
  10       0.000000
  11      -0.000000
  12       0.000262
  13       0.000793
  14       0.000000
  15      -0.000000
  16       0.000759
  17      -0.000983
  18       0.000000
  19      -0.000000
  20      -0.001178
  21      -0.000573
  22       0.000000
  23       0.000000
  24      -0.000361
  25      -0.000185
  26      -0.000185
  27       0.000881
  28       0.000000
  29      -0.000000
  30      -0.000000
  31       0.557764
  32       0.468110
  33       0.000000
  34       0.000000
  35      -0.002162
  36       0.004381
  37       0.000000
  38      -0.000000
  39       0.001335
  40       0.001389
  41      -0.000000
  42       0.000000
  43      -0.000938
  44       0.001329
  45       0.000000
  46      -0.000000
  47      -0.000056
  48      -0.000700
  49      -0.000700
  50      -0.000293
  51      -0.000000
  52      -0.000000
  53      -0.000000
Ene=    -1.12853E+01
Spin= Alpha
Occup=  2.0000
   1      -0.000319
   2      -0.000088
   3       0.000166
   4      -0.000378
   5      -0.000000
   6       0.000000
   7      -0.000119
   8      -0.563177
   9      -0.466029
  10       0.000000
  11      -0.000000
  12       0.000569
  13      -0.005265
  14       0.000000
  15       0.000000
  16      -0.000533
  17      -0.002637
  18      -0.000000
  19       0.000000
  20      -0.000317
  21      -0.000151
  22      -0.000000
  23       0.000000
  24      -0.000300
  25       0.001569
  26       0.001569
  27       0.000491
  28      -0.000000
  29      -0.000000
  30       0.000000
  31       0.000565
  32       0.000618
  33      -0.000000
  34       0.000000
  35       0.000345
  36      -0.000567
  37       0.000000
  38      -0.000000
  39       0.000936
  40       0.000429
  41      -0.000000
  42       0.000000
  43      -0.000221
  44       0.001297
  45       0.000000
  46      -0.000000
  47      -0.000401
  48       0.000179
  49       0.000179
  50      -0.000642
  51       0.000000
  52      -0.000000
  53       0.000000
Ene=    -1.25392E+00
Spin= Alpha
Occup=  2.0000
   1       0.015856
   2      -0.002349
   3      -0.013185
   4       0.000703
   5       0.000000
   6      -0.000000
   7      -0.005283
   8      -0.081405
   9      -0.132186
  10       0.000000
  11       0.000000
  12       0.107835
  13       0.319280
  14       0.000000
  15      -0.000000
  16       0.105867
  17       0.107699
  18      -0.000000
  19      -0.000000
  20      -0.021420
  21       0.038261
  22       0.000000
  23       0.000000
  24       0.009480
  25      -0.018302
  26      -0.018302
  27       0.029725
  28       0.000000
  29      -0.000000
  30      -0.000000
  31      -0.097827
  32      -0.161374
  33       0.000000
  34      -0.000000
  35      -0.093611
  36       0.420462
  37      -0.000000
  38      -0.000000
  39      -0.134842
  40       0.303795
  41       0.000000
  42       0.000000
  43      -0.054014
  44      -0.062886
  45      -0.000000
  46      -0.000000
  47       0.018345
  48      -0.014702
  49      -0.014702
  50       0.030542
  51      -0.000000
  52      -0.000000
  53       0.000000
Ene=    -8.12370E-01
Spin= Alpha
Occup=  2.0000
   1      -0.178724
   2      -0.253753
   3      -0.015419
   4      -0.011505
   5      -0.000000
   6       0.000000
   7      -0.026125
   8       0.067135
   9       0.110924
  10       0.000000
  11       0.000000
  12       0.155380
  13      -0.303853
  14       0.000000
  15       0.000000
  16       0.198725
  17      -0.251426
  18       0.000000
  19       0.000000
  20       0.101095
  21       0.021942
  22       0.000000
  23       0.000000
  24       0.008779
  25       0.007013
  26       0.007013
  27      -0.050182
  28      -0.000000
  29       0.000000
  30      -0.000000
  31      -0.037099
  32      -0.062032
  33       0.000000
  34      -0.000000
  35       0.001039
  36       0.189314
  37       0.000000
  38       0.000000
  39      -0.017602
  40       0.145760
  41       0.000000
  42      -0.000000
  43       0.011170
  44      -0.016620
  45      -0.000000
  46      -0.000000
  47      -0.003379
  48      -0.002409
  49      -0.002409
  50       0.016872
  51       0.000000
  52      -0.000000
  53       0.000000
Ene=    -5.82138E-01
Spin= Alpha
Occup=  2.0000
   1       0.047563
   2       0.075178
   3       0.016348
   4       0.029362
   5      -0.000000
   6       0.000000
   7       0.007294
   8       0.033954
   9       0.058084
  10      -0.000000
  11      -0.000000
  12      -0.122836
  13      -0.156702
  14      -0.000000
  15      -0.000000
  16      -0.142251
  17      -0.120997
  18      -0.000000
  19      -0.000000
  20      -0.095741
  21      -0.057951
  22       0.000000
  23      -0.000000
  24       0.011297
  25       0.004219
  26       0.004219
  27       0.011091
  28      -0.000000
  29      -0.000000
  30       0.000000
  31      -0.058122
  32      -0.098884
  33      -0.000000
  34      -0.000000
  35       0.234603
  36       0.279146
  37      -0.000000
  38      -0.000000
  39       0.362397
  40       0.458839
  41      -0.000000
  42      -0.000000
  43       0.210779
  44       0.113864
  45      -0.000000
  46       0.000000
  47      -0.010564
  48       0.012598
  49       0.012598
  50      -0.035432
  51       0.000000
  52       0.000000
  53       0.000000
Ene=    -5.06382E-01
Spin= Alpha
Occup=  2.0000
   1      -0.000000
   2       0.000000
   3       0.000000
   4      -0.000000
   5       0.013293
   6       0.008583
   7       0.000000
   8       0.000000
   9      -0.000000
  10       0.147142
  11       0.095005
  12      -0.000000
  13      -0.000000
  14       0.242869
  15       0.156812
  16      -0.000000
  17       0.000000
  18       0.175172
  19       0.113103
  20       0.000000
  21       0.000000
  22       0.013478
  23       0.008702
  24       0.000000
  25      -0.000000
  26      -0.000000
  27      -0.000000
  28      -0.000000
  29       0.035822
  30       0.023129
  31      -0.000000
  32      -0.000000
  33       0.162955
  34       0.105214
  35       0.000000
  36       0.000000
  37       0.260645
  38       0.168289
  39      -0.000000
  40      -0.000000
  41       0.200573
  42       0.129503
  43       0.000000
  44      -0.000000
  45       0.005241
  46       0.003384
  47       0.000000
  48       0.000000
  49       0.000000
  50       0.000000
  51       0.000000
  52      -0.032174
  53      -0.020774
Ene=    -5.06382E-01
Spin= Alpha
Occup=  2.0000
   1      -0.000000
   2       0.000000
   3       0.000000
   4       0.000000
   5      -0.008583
   6       0.013293
   7       0.000000
   8       0.000000
   9      -0.000000
  10      -0.095005
  11       0.147142
  12       0.000000
  13       0.000000
  14      -0.156812
  15       0.242869
  16       0.000000
  17       0.000000
  18      -0.113103
  19       0.175172
  20       0.000000
  21       0.000000
  22      -0.008702
  23       0.013478
  24       0.000000
  25      -0.000000
  26       0.000000
  27      -0.000000
  28       0.000000
  29      -0.023129
  30       0.035822
  31       0.000000
  32       0.000000
  33      -0.105214
  34       0.162955
  35      -0.000000
  36       0.000000
  37      -0.168289
  38       0.260645
  39      -0.000000
  40      -0.000000
  41      -0.129503
  42       0.200573
  43       0.000000
  44      -0.000000
  45      -0.003384
  46       0.005241
  47       0.000000
  48       0.000000
  49      -0.000000
  50       0.000000
  51      -0.000000
  52       0.020774
  53      -0.032174
Ene=     3.60335E-02
Spin= Alpha
Occup=  0.0000
   1      -0.010640
   2      -0.059365
   3       0.174204
   4       4.622558
   5       0.000000
   6      -0.000000
   7      -0.015457
   8       0.013660
   9       0.022172
  10       0.000000
  11      -0.000000
  12       0.029047
  13      -0.079246
  14       0.000000
  15       0.000000
  16       0.060460
  17      -0.001135
  18      -0.000000
  19      -0.000000
  20      -0.020227
  21      -3.838753
  22       0.000000
  23      -0.000000
  24       1.524589
  25      -0.007382
  26      -0.007382
  27       0.000285
  28      -0.000000
  29      -0.000000
  30      -0.000000
  31       0.001530
  32       0.001948
  33      -0.000000
  34       0.000000
  35      -0.011894
  36      -0.014654
  37      -0.000000
  38      -0.000000
  39      -0.018246
  40       0.025272
  41       0.000000
  42       0.000000
  43       0.022752
  44      -0.177528
  45      -0.000000
  46       0.000000
  47      -0.377398
  48      -0.001577
  49      -0.001577
  50      -0.006098
  51       0.000000
  52      -0.000000
  53       0.000000
Ene=     8.71382E-02
Spin= Alpha
Occup=  0.0000
   1       0.026644
   2       0.003032
   3      -0.289212
   4       0.691146
   5       0.000000
   6       0.000000
   7      -0.017079
   8       0.004061
   9       0.010469
  10      -0.000000
  11       0.000000
  12       0.007445
  13       0.038610
  14       0.000000
  15       0.000000
  16       0.039023
  17      -0.990900
  18      -0.000000
  19      -0.000000
  20      -0.587965
  21      -5.230671
  22       0.000000
  23       0.000000
  24      -2.077618
  25       0.005430
  26       0.005430
  27       0.051706
  28       0.000000
  29      -0.000000
  30      -0.000000
  31      -0.018701
  32      -0.030915
  33      -0.000000
  34      -0.000000
  35       0.002093
  36       0.103118
  37      -0.000000
  38      -0.000000
  39       0.046643
  40       0.284888
  41       0.000000
  42      -0.000000
  43      -0.249879
  44       5.320833
  45      -0.000000
  46      -0.000000
  47      -0.779620
  48       0.005246
  49       0.005246
  50      -0.000065
  51      -0.000000
  52       0.000000
  53       0.000000
Ene=     9.09382E-02
Spin= Alpha
Occup=  0.0000
   1      -0.000000
   2      -0.000000
   3       0.000000
   4      -0.000000
   5       0.004919
   6       0.017832
   7       0.000000
   8      -0.000000
   9      -0.000000
  10       0.003088
  11       0.011194
  12      -0.000000
  13      -0.000000
  14       0.014219
  15       0.051548
  16      -0.000000
  17       0.000000
  18      -0.016091
  19      -0.058336
  20       0.000000
  21       0.000000
  22       0.427612
  23       1.550242
  24       0.000000
  25      -0.000000
  26      -0.000000
  27      -0.000000
  28       0.000000
  29      -0.008087
  30      -0.029319
  31       0.000000
  32       0.000000
  33      -0.020626
  34      -0.074775
  35      -0.000000
  36      -0.000000
  37      -0.037171
  38      -0.134759
  39      -0.000000
  40      -0.000000
  41      -0.018198
  42      -0.065975
  43       0.000000
  44      -0.000000
  45      -0.226234
  46      -0.820176
  47       0.000000
  48      -0.000000
  49      -0.000000
  50      -0.000000
  51       0.000000
  52       0.000276
  53       0.001002
Ene=     9.09382E-02
Spin= Alpha
Occup=  0.0000
   1       0.000000
   2      -0.000000
   3       0.000000
   4       0.000000
   5       0.017832
   6      -0.004919
   7      -0.000000
   8      -0.000000
   9      -0.000000
  10       0.011194
  11      -0.003088
  12      -0.000000
  13       0.000000
  14       0.051548
  15      -0.014219
  16       0.000000
  17      -0.000000
  18      -0.058336
  19       0.016091
  20       0.000000
  21      -0.000000
  22       1.550242
  23      -0.427612
  24       0.000000
  25       0.000000
  26       0.000000
  27       0.000000
  28       0.000000
  29      -0.029319
  30       0.008087
  31       0.000000
  32       0.000000
  33      -0.074775
  34       0.020626
  35      -0.000000
  36       0.000000
  37      -0.134759
  38       0.037171
  39       0.000000
  40      -0.000000
  41      -0.065975
  42       0.018198
  43       0.000000
  44       0.000000
  45      -0.820176
  46       0.226234
  47      -0.000000
  48       0.000000
  49       0.000000
  50      -0.000000
  51      -0.000000
  52       0.001002
  53      -0.000276
Ene=     1.67731E-01
Spin= Alpha
Occup=  0.0000
   1       0.049068
   2      -0.189927
   3       1.997590
   4       7.382927
   5      -0.000000
   6      -0.000000
   7      -0.019876
   8      -0.019747
   9      -0.036761
  10       0.000000
  11      -0.000000
  12      -0.024365
  13       0.097085
  14       0.000000
  15      -0.000000
  16      -0.028154
  17       0.690402
  18       0.000000
  19      -0.000000
  20       0.141249
  21      -8.882072
  22      -0.000000
  23      -0.000000
  24       4.451133
  25      -0.036172
  26      -0.036172
  27       0.077018
  28      -0.000000
  29      -0.000000
  30       0.000000
  31       0.000760
  32       0.001655
  33       0.000000
  34       0.000000
  35      -0.019080
  36      -0.008140
  37      -0.000000
  38       0.000000
  39       0.012482
  40      -0.296570
  41       0.000000
  42       0.000000
  43       0.113778
  44      -0.394913
  45      -0.000000
  46       0.000000
  47      -0.727708
  48       0.003648
  49       0.003648
  50      -0.012927
  51       0.000000
  52      -0.000000
  53       0.000000
Ene=     1.80366E-01
Spin= Alpha
Occup=  0.0000
   1       0.000000
   2       0.000000
   3       0.000000
   4       0.000000
   5      -0.026850
   6       0.000985
   7       0.000000
   8      -0.000000
   9      -0.000000
  10      -0.159860
  11       0.005865
  12      -0.000000
  13       0.000000
  14      -0.182589
  15       0.006698
  16      -0.000000
  17       0.000000
  18      -0.845425
  19       0.031015
  20       0.000000
  21      -0.000000
  22       0.022418
  23      -0.000822
  24       0.000000
  25       0.000000
  26      -0.000000
  27      -0.000000
  28       0.000000
  29       0.032537
  30      -0.001194
  31       0.000000
  32       0.000000
  33       0.087854
  34      -0.003223
  35       0.000000
  36       0.000000
  37       0.153575
  38      -0.005634
  39      -0.000000
  40      -0.000000
  41       0.216285
  42      -0.007935
  43       0.000000
  44      -0.000000
  45       0.989219
  46      -0.036290
  47      -0.000000
  48      -0.000000
  49       0.000000
  50       0.000000
  51       0.000000
  52       0.023153
  53      -0.000849
Ene=     1.80366E-01
Spin= Alpha
Occup=  0.0000
   1      -0.000000
   2       0.000000
   3      -0.000000
   4      -0.000000
   5      -0.000985
   6      -0.026850
   7       0.000000
   8       0.000000
   9       0.000000
  10      -0.005865
  11      -0.159860
  12       0.000000
  13      -0.000000
  14      -0.006698
  15      -0.182589
  16       0.000000
  17      -0.000000
  18      -0.031015
  19      -0.845425
  20      -0.000000
  21       0.000000
  22       0.000822
  23       0.022418
  24      -0.000000
  25       0.000000
  26       0.000000
  27      -0.000000
  28       0.000000
  29       0.001194
  30       0.032537
  31      -0.000000
  32      -0.000000
  33       0.003223
  34       0.087854
  35       0.000000
  36      -0.000000
  37       0.005634
  38       0.153575
  39       0.000000
  40       0.000000
  41       0.007935
  42       0.216285
  43      -0.000000
  44       0.000000
  45       0.036290
  46       0.989219
  47      -0.000000
  48      -0.000000
  49      -0.000000
  50      -0.000000
  51      -0.000000
  52       0.000849
  53       0.023153
Ene=     2.09428E-01
Spin= Alpha
Occup=  0.0000
   1      -0.043535
   2      -0.217690
   3      -2.103985
   4       3.733040
   5      -0.000000
   6       0.000000
   7       0.019715
   8      -0.021708
   9      -0.035325
  10      -0.000000
  11       0.000000
  12      -0.090239
  13       0.133728
  14       0.000000
  15       0.000000
  16      -0.035514
  17      -0.196520
  18       0.000000
  19       0.000000
  20      -1.409500
  21      -5.633538
  22      -0.000000
  23      -0.000000
  24       0.992026
  25       0.028376
  26       0.028376
  27      -0.000001
  28       0.000000
  29       0.000000
  30      -0.000000
  31       0.007354
  32       0.010162
  33       0.000000
  34      -0.000000
  35       0.062837
  36      -0.071801
  37       0.000000
  38      -0.000000
  39       0.100089
  40       0.613085
  41       0.000000
  42      -0.000000
  43      -0.023290
  44       3.254294
  45      -0.000000
  46       0.000000
  47      -2.242215
  48      -0.000226
  49      -0.000226
  50      -0.040029
  51       0.000000
  52      -0.000000
  53      -0.000000
Ene=     2.80602E-01
Spin= Alpha
Occup=  0.0000
   1       0.000000
   2       0.000000
   3       0.000000
   4       0.000000
   5      -0.012245
   6       0.019700
   7      -0.000000
   8       0.000000
   9       0.000000
  10      -0.043731
  11       0.070356
  12       0.000000
  13       0.000000
  14      -0.077911
  15       0.125346
  16       0.000000
  17      -0.000000
  18      -0.271725
  19       0.437159
  20       0.000000
  21      -0.000000
  22       0.764250
  23      -1.229545
  24       0.000000
  25       0.000000
  26       0.000000
  27       0.000000
  28      -0.000000
  29       0.017532
  30      -0.028206
  31      -0.000000
  32      -0.000000
  33       0.092523
  34      -0.148854
  35      -0.000000
  36       0.000000
  37       0.093631
  38      -0.150636
  39      -0.000000
  40      -0.000000
  41       0.486624
  42      -0.782894
  43       0.000000
  44      -0.000000
  45      -1.052859
  46       1.693866
  47      -0.000000
  48       0.000000
  49       0.000000
  50      -0.000000
  51      -0.000000
  52      -0.003711
  53       0.005971
Ene=     2.80602E-01
Spin= Alpha
Occup=  0.0000
   1       0.000000
   2       0.000000
   3       0.000000
   4       0.000000
   5      -0.019700
   6      -0.012245
   7       0.000000
   8      -0.000000
   9      -0.000000
  10      -0.070356
  11      -0.043731
  12      -0.000000
  13      -0.000000
  14      -0.125346
  15      -0.077911
  16       0.000000
  17       0.000000
  18      -0.437159
  19      -0.271725
  20       0.000000
  21       0.000000
  22       1.229545
  23       0.764250
  24       0.000000
  25      -0.000000
  26      -0.000000
  27       0.000000
  28       0.000000
  29       0.028206
  30       0.017532
  31      -0.000000
  32      -0.000000
  33       0.148854
  34       0.092523
  35       0.000000
  36       0.000000
  37       0.150636
  38       0.093631
  39       0.000000
  40       0.000000
  41       0.782894
  42       0.486624
  43       0.000000
  44      -0.000000
  45      -1.693866
  46      -1.052859
  47       0.000000
  48      -0.000000
  49      -0.000000
  50      -0.000000
  51       0.000000
  52      -0.005971
  53      -0.003711
Ene=     2.86623E-01
Spin= Alpha
Occup=  0.0000
   1      -0.067772
   2      -0.293357
   3      -3.467787
   4      -3.563384
   5      -0.000000
   6       0.000000
   7       0.004038
   8      -0.027366
   9      -0.054428
  10      -0.000000
  11       0.000000
  12      -0.036931
  13       0.011665
  14      -0.000000
  15       0.000000
  16      -0.044000
  17       0.791434
  18      -0.000000
  19       0.000000
  20      -1.447084
  21       1.365014
  22       0.000000
  23      -0.000000
  24      -4.994152
  25      -0.018165
  26      -0.018165
  27      -0.051116
  28       0.000000
  29       0.000000
  30      -0.000000
  31       0.032054
  32       0.059051
  33       0.000000
  34      -0.000000
  35      -0.011900
  36      -0.157266
  37       0.000000
  38      -0.000000
  39       0.067333
  40      -0.146676
  41       0.000000
  42      -0.000000
  43      -0.675044
  44       5.582206
  45      -0.000000
  46       0.000000
  47       1.490331
  48       0.007108
  49       0.007108
  50       0.026363
  51      -0.000000
  52       0.000000
  53      -0.000000
Ene=     3.34997E-01
Spin= Alpha
Occup=  0.0000
   1      -0.009065
   2       0.378930
   3      -2.651124
   4      -3.396555
   5      -0.000000
   6       0.000000
   7       0.052081
   8      -0.024743
   9      -0.057222
  10      -0.000000
  11       0.000000
  12      -0.034057
  13      -0.066645
  14      -0.000000
  15       0.000000
  16      -0.056765
  17       3.353137
  18      -0.000000
  19       0.000000
  20       0.224133
  21       9.878821
  22       0.000000
  23      -0.000000
  24      -1.164474
  25      -0.061899
  26      -0.061899
  27      -0.115892
  28       0.000000
  29      -0.000000
  30      -0.000000
  31      -0.025439
  32      -0.049565
  33       0.000000
  34      -0.000000
  35       0.036373
  36       0.096339
  37       0.000000
  38      -0.000000
  39      -0.045519
  40       0.762277
  41       0.000000
  42      -0.000000
  43       0.499660
  44      -8.019746
  45      -0.000000
  46       0.000000
  47       2.751911
  48      -0.035339
  49      -0.035339
  50       0.013643
  51      -0.000000
  52      -0.000000
  53       0.000000
Ene=     5.39133E-01
Spin= Alpha
Occup=  0.0000
   1       0.136381
   2       0.981056
   3      -4.711736
   4      -1.870819
   5      -0.000000
   6       0.000000
   7       0.007303
   8       0.024316
   9       0.048922
  10      -0.000000
  11       0.000000
  12       0.022889
  13      -0.006095
  14      -0.000000
  15       0.000000
  16       0.116386
  17      -4.653859
  18       0.000000
  19      -0.000000
  20      -3.820266
  21      -0.371645
  22       0.000000
  23      -0.000000
  24      -3.388199
  25       0.008233
  26       0.008233
  27       0.049537
  28       0.000000
  29       0.000000
  30      -0.000000
  31      -0.016415
  32      -0.034072
  33       0.000000
  34       0.000000
  35      -0.124456
  36      -0.037243
  37       0.000000
  38       0.000000
  39      -0.157702
  40       3.318863
  41      -0.000000
  42      -0.000000
  43      -1.805206
  44       7.214189
  45      -0.000000
  46       0.000000
  47      -0.861760
  48      -0.038038
  49      -0.038038
  50      -0.007377
  51      -0.000000
  52       0.000000
  53      -0.000000
Ene=     7.03748E-01
Spin= Alpha
Occup=  0.0000
   1       0.000000
   2      -0.000000
   3      -0.000000
   4      -0.000000
   5       0.002952
   6      -0.011186
   7      -0.000000
   8       0.000000
   9       0.000000
  10       0.058407
  11      -0.221335
  12       0.000000
  13       0.000000
  14       0.256162
  15      -0.970735
  16       0.000000
  17      -0.000000
  18      -0.411999
  19       1.561288
  20      -0.000000
  21      -0.000000
  22       0.121658
  23      -0.461029
  24      -0.000000
  25      -0.000000
  26      -0.000000
  27       0.000000
  28       0.000000
  29       0.004867
  30      -0.018446
  31      -0.000000
  32      -0.000000
  33      -0.006303
  34       0.023886
  35      -0.000000
  36       0.000000
  37      -0.006887
  38       0.026100
  39       0.000000
  40       0.000000
  41       0.006049
  42      -0.022923
  43      -0.000000
  44       0.000000
  45       0.061224
  46      -0.232010
  47      -0.000000
  48      -0.000000
  49      -0.000000
  50      -0.000000
  51       0.000000
  52      -0.009754
  53       0.036961
Ene=     7.03748E-01
Spin= Alpha
Occup=  0.0000
   1      -0.000000
   2       0.000000
   3       0.000000
   4      -0.000000
   5       0.011186
   6       0.002952
   7       0.000000
   8      -0.000000
   9      -0.000000
  10       0.221335
  11       0.058407
  12      -0.000000
  13       0.000000
  14       0.970735
  15       0.256162
  16      -0.000000
  17       0.000000
  18      -1.561288
  19      -0.411999
  20       0.000000
  21       0.000000
  22       0.461029
  23       0.121658
  24      -0.000000
  25       0.000000
  26       0.000000
  27      -0.000000
  28      -0.000000
  29       0.018446
  30       0.004867
  31       0.000000
  32       0.000000
  33      -0.023886
  34      -0.006303
  35       0.000000
  36       0.000000
  37      -0.026100
  38      -0.006887
  39      -0.000000
  40      -0.000000
  41       0.022923
  42       0.006049
  43       0.000000
  44      -0.000000
  45       0.232010
  46       0.061224
  47       0.000000
  48       0.000000
  49       0.000000
  50       0.000000
  51      -0.000000
  52      -0.036961
  53      -0.009754
Ene=     7.47523E-01
Spin= Alpha
Occup=  0.0000
   1      -0.007955
   2       2.063183
   3       2.487389
   4      -3.283438
   5       0.000000
   6      -0.000000
   7       0.165697
   8      -0.026879
   9      -0.038615
  10      -0.000000
  11      -0.000000
  12      -0.103266
  13       0.352174
  14      -0.000000
  15      -0.000000
  16      -0.465665
  17       1.630942
  18       0.000000
  19       0.000000
  20       6.758411
  21       6.201345
  22      -0.000000
  23      -0.000000
  24      -0.876075
  25       0.112289
  26       0.112289
  27      -0.189078
  28      -0.000000
  29      -0.000000
  30       0.000000
  31       0.015515
  32       0.038541
  33       0.000000
  34       0.000000
  35       0.023040
  36       0.120587
  37       0.000000
  38       0.000000
  39      -0.149034
  40      -4.575167
  41       0.000000
  42      -0.000000
  43       1.245722
  44      -4.804462
  45      -0.000000
  46       0.000000
  47       1.521935
  48       0.053734
  49       0.053734
  50       0.089054
  51      -0.000000
  52      -0.000000
  53       0.000000
Ene=     9.11733E-01
Spin= Alpha
Occup=  0.0000
   1      -0.059145
   2      -0.615724
   3       1.877833
   4       1.182136
   5       0.000000
   6      -0.000000
   7       0.045566
   8      -0.095718
   9      -0.119078
  10      -0.000000
  11       0.000000
  12      -0.003141
  13       1.806711
  14      -0.000000
  15       0.000000
  16       0.104089
  17      -3.882631
  18       0.000000
  19       0.000000
  20      -0.367210
  21      -2.898087
  22      -0.000000
  23      -0.000000
  24       1.188544
  25       0.330160
  26       0.330160
  27       0.302525
  28      -0.000000
  29       0.000000
  30       0.000000
  31       0.015121
  32       0.025415
  33       0.000000
  34       0.000000
  35      -0.014759
  36      -0.030063
  37      -0.000000
  38       0.000000
  39      -0.117857
  40       0.055180
  41       0.000000
  42      -0.000000
  43       1.044318
  44       2.271369
  45      -0.000000
  46       0.000000
  47      -1.941659
  48      -0.020168
  49      -0.020168
  50       0.017007
  51      -0.000000
  52       0.000000
  53      -0.000000
Ene=     9.63229E-01
Spin= Alpha
Occup=  0.0000
   1      -0.019841
   2      -1.913186
   3      -0.901985
   4      -0.210664
   5      -0.000000
   6       0.000000
   7      -0.025846
   8      -0.017487
   9      -0.018989
  10      -0.000000
  11      -0.000000
  12      -0.153431
  13       0.168731
  14       0.000000
  15      -0.000000
  16      -0.950770
  17      -8.204727
  18       0.000000
  19       0.000000
  20      -5.891492
  21      -3.295463
  22      -0.000000
  23      -0.000000
  24      -1.324305
  25       0.036953
  26       0.036953
  27       0.135035
  28       0.000000
  29       0.000000
  30      -0.000000
  31      -0.045778
  32      -0.083875
  33       0.000000
  34       0.000000
  35       0.021365
  36       0.047947
  37       0.000000
  38      -0.000000
  39       0.263109
  40       6.654493
  41      -0.000000
  42       0.000000
  43      -4.342403
  44       7.210781
  45       0.000000
  46      -0.000000
  47      -0.912644
  48      -0.022685
  49      -0.022685
  50      -0.016760
  51       0.000000
  52      -0.000000
  53      -0.000000
Ene=     1.06405E+00
Spin= Alpha