[Molden Format]
[Atoms] Angs
H       1       1     0.00000000     0.00000000     0.00000000
C       2       6     0.00000000     0.00000000     2.00121982
N       3       7     0.00000000     0.00000000     4.13094101
[GTO]
  1 0
s  3 1.00
   3.3865000000E+01   2.5493800000E-02
   5.0947900000E+00   1.9037300000E-01
   1.1587900000E+00   8.5216100000E-01
s  1 1.00
   3.2584000000E-01   1.0000000000E+00
s  1 1.00
   1.0274100000E-01   1.0000000000E+00
s  1 1.00
   3.6000000000E-02   1.0000000000E+00
p  1 1.00
   7.5000000000E-01   1.0000000000E+00
 
  2 0
s  6 1.00
   4.5632400000E+03   1.9666500000E-03
   6.8202400000E+02   1.5230600000E-02
   1.5497300000E+02   7.6126900000E-02
   4.4455300000E+01   2.6080100000E-01
   1.3029000000E+01   6.1646200000E-01
   1.8277300000E+00   2.2100600000E-01
s  3 1.00
   2.0964200000E+01   1.1466000000E-01
   4.8033100000E+00   9.1999900000E-01
   1.4593300000E+00  -3.0306800000E-03
p  3 1.00
   2.0964200000E+01   4.0248700000E-02
   4.8033100000E+00   2.3759400000E-01
   1.4593300000E+00   8.1585400000E-01
s  1 1.00
   4.8345600000E-01   1.0000000000E+00
p  1 1.00
   4.8345600000E-01   1.0000000000E+00
s  1 1.00
   1.4558500000E-01   1.0000000000E+00
p  1 1.00
   1.4558500000E-01   1.0000000000E+00
s  1 1.00
   4.3800000000E-02   1.0000000000E+00
p  1 1.00
   4.3800000000E-02   1.0000000000E+00
d  1 1.00
   6.2600000000E-01   1.0000000000E+00
 
  3 0
s  6 1.00
   6.2934800000E+03   1.9697900000E-03
   9.4904400000E+02   1.4961300000E-02
   2.1877600000E+02   7.3500600000E-02
   6.3691600000E+01   2.4893700000E-01
   1.8828200000E+01   6.0246000000E-01
   2.7202300000E+00   2.5620200000E-01
s  3 1.00
   3.0633100000E+01   1.1190600000E-01
   7.0261400000E+00   9.2166600000E-01
   2.1120500000E+00  -2.5691900000E-03
p  3 1.00
   3.0633100000E+01   3.8311900000E-02
   7.0261400000E+00   2.3740300000E-01
   2.1120500000E+00   8.1759200000E-01
s  1 1.00
   6.8400900000E-01   1.0000000000E+00
p  1 1.00
   6.8400900000E-01   1.0000000000E+00
s  1 1.00
   2.0087800000E-01   1.0000000000E+00
p  1 1.00
   2.0087800000E-01   1.0000000000E+00
s  1 1.00
   6.3900000000E-02   1.0000000000E+00
p  1 1.00
   6.3900000000E-02   1.0000000000E+00
d  1 1.00
   9.1300000000E-01   1.0000000000E+00
 
 
[MO]
Ene=    -1.57008E+01
Spin= Alpha
Occup=  2.0000
   1      -0.000107
   2      -0.000485
   3      -0.000441
   4      -0.000038
   5      -0.000000
   6      -0.000000
   7      -0.000218
   8       0.000110
   9      -0.000055
  10       0.000000
  11      -0.000000
  12       0.000261
  13       0.000771
  14       0.000000
  15      -0.000000
  16       0.000726
  17      -0.000968
  18       0.000000
  19      -0.000000
  20      -0.001161
  21      -0.000552
  22       0.000000
  23       0.000000
  24      -0.000344
  25      -0.000182
  26      -0.000182
  27       0.000853
  28       0.000000
  29       0.000000
  30      -0.000000
  31       0.557750
  32       0.468093
  33       0.000000
  34       0.000000
  35      -0.002085
  36       0.004477
  37       0.000000
  38      -0.000000
  39       0.001267
  40       0.001406
  41      -0.000000
  42       0.000000
  43      -0.000915
  44       0.001276
  45       0.000000
  46      -0.000000
  47      -0.000054
  48      -0.000715
  49      -0.000715
  50      -0.000300
  51      -0.000000
  52       0.000000
  53       0.000000
Ene=    -1.13966E+01
Spin= Alpha
Occup=  2.0000
   1      -0.000311
   2      -0.000045
   3       0.000134
   4      -0.000368
   5      -0.000000
   6       0.000000
   7      -0.000100
   8      -0.563187
   9      -0.466045
  10       0.000000
  11      -0.000000
  12       0.000466
  13      -0.005208
  14       0.000000
  15       0.000000
  16      -0.000462
  17      -0.002577
  18      -0.000000
  19       0.000000
  20      -0.000317
  21      -0.000162
  22      -0.000000
  23       0.000000
  24      -0.000304
  25       0.001560
  26       0.001560
  27       0.000435
  28      -0.000000
  29      -0.000000
  30       0.000000
  31       0.000566
  32       0.000621
  33      -0.000000
  34       0.000000
  35       0.000349
  36      -0.000567
  37       0.000000
  38      -0.000000
  39       0.000923
  40       0.000380
  41      -0.000000
  42       0.000000
  43      -0.000196
  44       0.001305
  45       0.000000
  46      -0.000000
  47      -0.000403
  48       0.000181
  49       0.000181
  50      -0.000625
  51       0.000000
  52       0.000000
  53      -0.000000
Ene=    -1.36450E+00
Spin= Alpha
Occup=  2.0000
   1      -0.015326
   2       0.002943
   3       0.013400
   4      -0.000893
   5      -0.000000
   6       0.000000
   7       0.005316
   8       0.081140
   9       0.131767
  10       0.000000
  11      -0.000000
  12      -0.108099
  13      -0.318682
  14      -0.000000
  15       0.000000
  16      -0.106356
  17      -0.104240
  18       0.000000
  19       0.000000
  20       0.021770
  21      -0.037042
  22      -0.000000
  23      -0.000000
  24      -0.009290
  25       0.018398
  26       0.018398
  27      -0.029876
  28      -0.000000
  29       0.000000
  30       0.000000
  31       0.097991
  32       0.161611
  33      -0.000000
  34       0.000000
  35       0.093130
  36      -0.419997
  37       0.000000
  38       0.000000
  39       0.133878
  40      -0.307916
  41      -0.000000
  42      -0.000000
  43       0.053858
  44       0.061264
  45       0.000000
  46       0.000000
  47      -0.018213
  48       0.014565
  49       0.014565
  50      -0.030386
  51      -0.000000
  52       0.000000
  53      -0.000000
Ene=    -9.16656E-01
Spin= Alpha
Occup=  2.0000
   1      -0.177702
   2      -0.249535
   3      -0.006955
   4      -0.010297
   5      -0.000000
   6       0.000000
   7      -0.026477
   8       0.068303
   9       0.112940
  10       0.000000
  11       0.000000
  12       0.155258
  13      -0.310547
  14       0.000000
  15       0.000000
  16       0.199930
  17      -0.259349
  18       0.000000
  19       0.000000
  20       0.100210
  21       0.019394
  22      -0.000000
  23       0.000000
  24       0.009388
  25       0.006982
  26       0.006982
  27      -0.049967
  28      -0.000000
  29      -0.000000
  30       0.000000
  31      -0.037343
  32      -0.062452
  33      -0.000000
  34       0.000000
  35       0.003252
  36       0.189948
  37       0.000000
  38       0.000000
  39      -0.013988
  40       0.151103
  41      -0.000000
  42       0.000000
  43       0.013883
  44      -0.014531
  45       0.000000
  46      -0.000000
  47      -0.003716
  48      -0.002273
  49      -0.002273
  50       0.016476
  51       0.000000
  52      -0.000000
  53       0.000000
Ene=    -6.96481E-01
Spin= Alpha
Occup=  2.0000
   1       0.048916
   2       0.076516
   3       0.011302
   4       0.021487
   5      -0.000000
   6       0.000000
   7       0.007807
   8       0.033102
   9       0.056704
  10      -0.000000
  11      -0.000000
  12      -0.125089
  13      -0.151500
  14      -0.000000
  15      -0.000000
  16      -0.143741
  17      -0.098645
  18      -0.000000
  19      -0.000000
  20      -0.091054
  21      -0.046457
  22       0.000000
  23      -0.000000
  24       0.006065
  25       0.004638
  26       0.004638
  27       0.011562
  28      -0.000000
  29      -0.000000
  30       0.000000
  31      -0.057023
  32      -0.096951
  33      -0.000000
  34       0.000000
  35       0.233811
  36       0.272683
  37      -0.000000
  38       0.000000
  39       0.361417
  40       0.444631
  41      -0.000000
  42      -0.000000
  43       0.221396
  44       0.109633
  45      -0.000000
  46       0.000000
  47      -0.003608
  48       0.012558
  49       0.012558
  50      -0.034932
  51       0.000000
  52      -0.000000
  53       0.000000
Ene=    -6.17464E-01
Spin= Alpha
Occup=  2.0000
   1       0.000000
   2      -0.000000
   3      -0.000000
   4       0.000000
   5      -0.006473
   6      -0.013916
   7      -0.000000
   8      -0.000000
   9       0.000000
  10      -0.073143
  11      -0.157245
  12       0.000000
  13       0.000000
  14      -0.120885
  15      -0.259883
  16       0.000000
  17      -0.000000
  18      -0.083899
  19      -0.180369
  20      -0.000000
  21      -0.000000
  22      -0.004656
  23      -0.010009
  24      -0.000000
  25       0.000000
  26       0.000000
  27       0.000000
  28       0.000000
  29      -0.018266
  30      -0.039270
  31       0.000000
  32      -0.000000
  33      -0.082541
  34      -0.177449
  35      -0.000000
  36      -0.000000
  37      -0.131797
  38      -0.283342
  39       0.000000
  40       0.000000
  41      -0.104200
  42      -0.224013
  43      -0.000000
  44       0.000000
  45      -0.004702
  46      -0.010109
  47      -0.000000
  48      -0.000000
  49      -0.000000
  50      -0.000000
  51       0.000000
  52       0.015909
  53       0.034203
Ene=    -6.17464E-01
Spin= Alpha
Occup=  2.0000
   1       0.000000
   2       0.000000
   3       0.000000
   4      -0.000000
   5       0.013916
   6      -0.006473
   7       0.000000
   8       0.000000
   9       0.000000
  10       0.157245
  11      -0.073143
  12       0.000000
  13      -0.000000
  14       0.259883
  15      -0.120885
  16      -0.000000
  17       0.000000
  18       0.180369
  19      -0.083899
  20       0.000000
  21       0.000000
  22       0.010009
  23      -0.004656
  24       0.000000
  25      -0.000000
  26      -0.000000
  27      -0.000000
  28      -0.000000
  29       0.039270
  30      -0.018266
  31      -0.000000
  32       0.000000
  33       0.177449
  34      -0.082541
  35       0.000000
  36       0.000000
  37       0.283342
  38      -0.131797
  39      -0.000000
  40      -0.000000
  41       0.224013
  42      -0.104200
  43       0.000000
  44      -0.000000
  45       0.010109
  46      -0.004702
  47       0.000000
  48       0.000000
  49       0.000000
  50       0.000000
  51      -0.000000
  52      -0.034203
  53       0.015909
Ene=    -4.14245E-02
Spin= Alpha
Occup=  0.0000
   1      -0.016384
   2      -0.049143
   3       0.307315
   4       3.951179
   5      -0.000000
   6       0.000000
   7      -0.010918
   8       0.013538
   9       0.021312
  10      -0.000000
  11       0.000000
  12       0.029912
  13      -0.093701
  14      -0.000000
  15      -0.000000
  16       0.048354
  17       0.208319
  18      -0.000000
  19       0.000000
  20       0.181564
  21      -1.889567
  22      -0.000000
  23       0.000000
  24       1.919990
  25      -0.007770
  26      -0.007770
  27      -0.014468
  28       0.000000
  29       0.000000
  30       0.000000
  31       0.006719
  32       0.010701
  33       0.000000
  34      -0.000000
  35      -0.014118
  36      -0.041421
  37       0.000000
  38      -0.000000
  39      -0.033425
  40      -0.069155
  41       0.000000
  42       0.000000
  43       0.077202
  44      -1.677389
  45       0.000000
  46      -0.000000
  47      -0.082637
  48      -0.002681
  49      -0.002681
  50      -0.004151
  51      -0.000000
  52       0.000000
  53      -0.000000
Ene=    -1.17499E-02
Spin= Alpha
Occup=  0.0000
   1      -0.019130
   2      -0.021535
   3       0.386705
   4      -1.427799
   5       0.000000
   6       0.000000
   7       0.016479
   8      -0.009847
   9      -0.020374
  10       0.000000
  11       0.000000
  12      -0.015526
  13      -0.007320
  14       0.000000
  15       0.000000
  16      -0.056963
  17       0.997996
  18       0.000000
  19       0.000000
  20       0.554379
  21       5.217467
  22       0.000000
  23       0.000000
  24       1.760640
  25      -0.008026
  26      -0.008026
  27      -0.040688
  28       0.000000
  29      -0.000000
  30      -0.000000
  31       0.019048
  32       0.032267
  33      -0.000000
  34      -0.000000
  35      -0.004532
  36      -0.099981
  37      -0.000000
  38      -0.000000
  39      -0.036123
  40      -0.352732
  41      -0.000000
  42      -0.000000
  43       0.196923
  44      -4.758068
  45      -0.000000
  46      -0.000000
  47       0.872330
  48      -0.002768
  49      -0.002768
  50       0.003069
  51      -0.000000
  52      -0.000000
  53      -0.000000
Ene=     8.87629E-04
Spin= Alpha
Occup=  0.0000
   1      -0.000000
   2      -0.000000
   3       0.000000
   4      -0.000000
   5      -0.020226
   6       0.000758
   7      -0.000000
   8      -0.000000
   9      -0.000000
  10      -0.023720
  11       0.000889
  12      -0.000000
  13       0.000000
  14      -0.068212
  15       0.002556
  16      -0.000000
  17       0.000000
  18      -0.009660
  19       0.000362
  20       0.000000
  21       0.000000
  22      -1.530776
  23       0.057367
  24       0.000000
  25       0.000000
  26      -0.000000
  27      -0.000000
  28       0.000000
  29       0.032362
  30      -0.001213
  31       0.000000
  32       0.000000
  33       0.087696
  34      -0.003286
  35       0.000000
  36       0.000000
  37       0.150314
  38      -0.005633
  39      -0.000000
  40      -0.000000
  41       0.124455
  42      -0.004664
  43       0.000000
  44      -0.000000
  45       0.795650
  46      -0.029818
  47       0.000000
  48      -0.000000
  49      -0.000000
  50       0.000000
  51       0.000000
  52       0.000145
  53      -0.000005
Ene=     8.87629E-04
Spin= Alpha
Occup=  0.0000
   1      -0.000000
   2      -0.000000
   3      -0.000000
   4      -0.000000
   5      -0.000758
   6      -0.020226
   7      -0.000000
   8      -0.000000
   9      -0.000000
  10      -0.000889
  11      -0.023720
  12      -0.000000
  13       0.000000
  14      -0.002556
  15      -0.068212
  16      -0.000000
  17       0.000000
  18      -0.000362
  19      -0.009660
  20       0.000000
  21       0.000000
  22      -0.057367
  23      -1.530776
  24       0.000000
  25       0.000000
  26      -0.000000
  27      -0.000000
  28      -0.000000
  29       0.001213
  30       0.032362
  31       0.000000
  32       0.000000
  33       0.003286
  34       0.087696
  35       0.000000
  36      -0.000000
  37       0.005633
  38       0.150314
  39      -0.000000
  40       0.000000
  41       0.004664
  42       0.124455
  43       0.000000
  44      -0.000000
  45       0.029818
  46       0.795650
  47       0.000000
  48      -0.000000
  49      -0.000000
  50      -0.000000
  51      -0.000000
  52       0.000005
  53       0.000145
Ene=     6.92763E-02
Spin= Alpha
Occup=  0.0000
   1      -0.000000
   2       0.000000
   3      -0.000000
   4      -0.000000
   5       0.023840
   6       0.000187
   7       0.000000
   8       0.000000
   9       0.000000
  10       0.157998
  11       0.001242
  12      -0.000000
  13      -0.000000
  14       0.180433
  15       0.001418
  16       0.000000
  17      -0.000000
  18       0.824795
  19       0.006481
  20      -0.000000
  21       0.000000
  22      -0.035125
  23      -0.000276
  24      -0.000000
  25       0.000000
  26       0.000000
  27      -0.000000
  28      -0.000000
  29      -0.028231
  30      -0.000222
  31      -0.000000
  32      -0.000000
  33      -0.075887
  34      -0.000596
  35       0.000000
  36       0.000000
  37      -0.136930
  38      -0.001076
  39       0.000000
  40       0.000000
  41      -0.179176
  42      -0.001408
  43       0.000000
  44      -0.000000
  45      -1.025857
  46      -0.008061
  47      -0.000000
  48      -0.000000
  49      -0.000000
  50      -0.000000
  51       0.000000
  52      -0.024255
  53      -0.000191
Ene=     6.92763E-02
Spin= Alpha
Occup=  0.0000
   1      -0.000000
   2       0.000000
   3      -0.000000
   4      -0.000000
   5      -0.000187
   6       0.023840
   7       0.000000
   8       0.000000
   9       0.000000
  10      -0.001242
  11       0.157998
  12       0.000000
  13      -0.000000
  14      -0.001418
  15       0.180433
  16       0.000000
  17      -0.000000
  18      -0.006481
  19       0.824795
  20      -0.000000
  21       0.000000
  22       0.000276
  23      -0.035125
  24      -0.000000
  25       0.000000
  26       0.000000
  27      -0.000000
  28       0.000000
  29       0.000222
  30      -0.028231
  31       0.000000
  32       0.000000
  33       0.000596
  34      -0.075887
  35       0.000000
  36      -0.000000
  37       0.001076
  38      -0.136930
  39       0.000000
  40       0.000000
  41       0.001408
  42      -0.179176
  43      -0.000000
  44       0.000000
  45       0.008061
  46      -1.025857
  47       0.000000
  48       0.000000
  49       0.000000
  50       0.000000
  51       0.000000
  52       0.000191
  53      -0.024255
Ene=     7.53717E-02
Spin= Alpha
Occup=  0.0000
   1       0.058083
   2      -0.108821
   3       2.171211
   4       5.581372
   5       0.000000
   6       0.000000
   7      -0.024843
   8      -0.013162
   9      -0.026536
  10       0.000000
  11       0.000000
  12       0.004961
  13       0.047881
  14       0.000000
  15       0.000000
  16      -0.014930
  17       0.742198
  18       0.000000
  19       0.000000
  20       0.414769
  21      -6.708070
  22      -0.000000
  23      -0.000000
  24       3.291177
  25      -0.045727
  26      -0.045727
  27       0.069558
  28      -0.000000
  29      -0.000000
  30      -0.000000
  31      -0.002425
  32      -0.002957
  33      -0.000000
  34      -0.000000
  35      -0.038962
  36       0.018330
  37      -0.000000
  38      -0.000000
  39      -0.015726
  40      -0.397003
  41      -0.000000
  42      -0.000000
  43       0.044629
  44      -0.776200
  45      -0.000000
  46      -0.000000
  47       0.153536
  48       0.002693
  49       0.002693
  50       0.003156
  51       0.000000
  52      -0.000000
  53      -0.000000
Ene=     1.12878E-01
Spin= Alpha
Occup=  0.0000
   1       0.019547
   2       0.237786
   3       0.709647
   4      -6.615600
   5       0.000000
   6      -0.000000
   7      -0.012474
   8       0.023479
   9       0.037809
  10       0.000000
  11      -0.000000
  12       0.086972
  13      -0.165906
  14       0.000000
  15      -0.000000
  16       0.047357
  17       0.093889
  18       0.000000
  19      -0.000000
  20       0.984063
  21       8.610537
  22      -0.000000
  23       0.000000
  24      -3.171007
  25      -0.022231
  26      -0.022231
  27      -0.030334
  28       0.000000
  29      -0.000000
  30       0.000000
  31      -0.004274
  32      -0.004868
  33      -0.000000
  34       0.000000
  35      -0.054342
  36       0.053423
  37      -0.000000
  38       0.000000
  39      -0.087164
  40      -0.418178
  41      -0.000000
  42       0.000000
  43      -0.115160
  44      -2.185715
  45       0.000000
  46      -0.000000
  47       2.561340
  48      -0.000717
  49      -0.000717
  50       0.043077
  51      -0.000000
  52      -0.000000
  53       0.000000
Ene=     1.75683E-01
Spin= Alpha
Occup=  0.0000
   1       0.000000
   2       0.000000
   3       0.000000
   4       0.000000
   5      -0.022961
   6       0.000397
   7      -0.000000
   8       0.000000
   9       0.000000
  10      -0.090876
  11       0.001571
  12       0.000000
  13      -0.000000
  14      -0.164768
  15       0.002848
  16       0.000000
  17      -0.000000
  18      -0.527834
  19       0.009125
  20       0.000000
  21       0.000000
  22       1.516928
  23      -0.026224
  24       0.000000
  25      -0.000000
  26      -0.000000
  27       0.000000
  28       0.000000
  29       0.032500
  30      -0.000562
  31      -0.000000
  32      -0.000000
  33       0.174004
  34      -0.003008
  35       0.000000
  36       0.000000
  37       0.178923
  38      -0.003093
  39      -0.000000
  40      -0.000000
  41       0.915676
  42      -0.015830
  43       0.000000
  44      -0.000000
  45      -1.994396
  46       0.034478
  47      -0.000000
  48      -0.000000
  49      -0.000000
  50      -0.000000
  51       0.000000
  52      -0.004914
  53       0.000085
Ene=     1.75683E-01
Spin= Alpha
Occup=  0.0000
   1      -0.000000
   2      -0.000000
   3       0.000000
   4      -0.000000
   5       0.000397
   6       0.022961
   7      -0.000000
   8       0.000000
   9       0.000000
  10       0.001571
  11       0.090876
  12       0.000000
  13       0.000000
  14       0.002848
  15       0.164768
  16       0.000000
  17      -0.000000
  18       0.009125
  19       0.527834
  20      -0.000000
  21      -0.000000
  22      -0.026224
  23      -1.516928
  24      -0.000000
  25       0.000000
  26       0.000000
  27       0.000000
  28      -0.000000
  29      -0.000562
  30      -0.032500
  31       0.000000
  32       0.000000
  33      -0.003008
  34      -0.174004
  35      -0.000000
  36      -0.000000
  37      -0.003093
  38      -0.178923
  39       0.000000
  40      -0.000000
  41      -0.015830
  42      -0.915676
  43      -0.000000
  44       0.000000
  45       0.034478
  46       1.994396
  47      -0.000000
  48       0.000000
  49       0.000000
  50       0.000000
  51      -0.000000
  52       0.000085
  53       0.004914
Ene=     1.80574E-01
Spin= Alpha
Occup=  0.0000
   1      -0.074831
   2      -0.338331
   3      -3.521467
   4      -2.807205
   5      -0.000000
   6      -0.000000
   7       0.003239
   8      -0.027573
   9      -0.053071
  10      -0.000000
  11      -0.000000
  12      -0.044216
  13       0.038956
  14      -0.000000
  15      -0.000000
  16      -0.034525
  17       0.501305
  18      -0.000000
  19      -0.000000
  20      -1.601356
  21      -0.205250
  22       0.000000
  23       0.000000
  24      -4.831104
  25      -0.006906
  26      -0.006906
  27      -0.042902
  28       0.000000
  29       0.000000
  30       0.000000
  31       0.034456
  32       0.063229
  33       0.000000
  34       0.000000
  35      -0.006015
  36      -0.168438
  37       0.000000
  38       0.000000
  39       0.079911
  40      -0.162911
  41       0.000000
  42       0.000000
  43      -0.679353
  44       6.689658
  45      -0.000000
  46      -0.000000
  47       0.939640
  48       0.010175
  49       0.010175
  50       0.019081
  51      -0.000000
  52      -0.000000
  53      -0.000000
Ene=     2.34628E-01
Spin= Alpha
Occup=  0.0000
   1       0.022128
   2      -0.300605
   3       2.871643
   4       3.594183
   5       0.000000
   6      -0.000000
   7      -0.051172
   8       0.027570
   9       0.062604
  10       0.000000
  11      -0.000000
  12       0.039803
  13       0.059415
  14       0.000000
  15      -0.000000
  16       0.057753
  17      -3.530311
  18       0.000000
  19      -0.000000
  20      -0.162792
  21     -10.005541
  22      -0.000000
  23       0.000000
  24       1.431254
  25       0.061881
  26       0.061881
  27       0.117563
  28      -0.000000
  29       0.000000
  30       0.000000
  31       0.022237
  32       0.043473
  33       0.000000
  34       0.000000
  35      -0.041724
  36      -0.084154
  37      -0.000000
  38       0.000000
  39       0.028370
  40      -0.669802
  41       0.000000
  42       0.000000
  43      -0.510112
  44       7.750377
  45      -0.000000
  46      -0.000000
  47      -2.803197
  48       0.032353
  49       0.032353
  50      -0.013807
  51       0.000000
  52       0.000000
  53      -0.000000
Ene=     4.39000E-01
Spin= Alpha
Occup=  0.0000
   1       0.135500
   2       0.972242
   3      -4.811182
   4      -1.964174
   5      -0.000000
   6       0.000000
   7       0.011452
   8       0.021941
   9       0.045137
  10      -0.000000
  11       0.000000
  12       0.018199
  13       0.014028
  14      -0.000000
  15       0.000000
  16       0.102403
  17      -4.613157
  18       0.000000
  19      -0.000000
  20      -3.838542
  21      -0.125691
  22       0.000000
  23      -0.000000
  24      -3.438215
  25       0.010205
  26       0.010205
  27       0.051095
  28       0.000000
  29       0.000000
  30      -0.000000
  31      -0.017104
  32      -0.035391
  33       0.000000
  34       0.000000
  35      -0.122643
  36      -0.033532
  37       0.000000
  38       0.000000
  39      -0.160626
  40       3.358316
  41      -0.000000
  42      -0.000000
  43      -1.793415
  44       7.060937
  45      -0.000000
  46       0.000000
  47      -0.815228
  48      -0.038411
  49      -0.038411
  50      -0.007500
  51      -0.000000
  52       0.000000
  53      -0.000000
Ene=     5.99074E-01
Spin= Alpha
Occup=  0.0000
   1      -0.000000
   2      -0.000000
   3      -0.000000
   4       0.000000
   5      -0.011744
   6       0.000577
   7      -0.000000
   8       0.000000
   9       0.000000
  10      -0.227683
  11       0.011188
  12       0.000000
  13      -0.000000
  14      -0.998612
  15       0.049070
  16      -0.000000
  17      -0.000000
  18       1.615812
  19      -0.079398
  20      -0.000000
  21      -0.000000
  22      -0.491111
  23       0.024132
  24       0.000000
  25      -0.000000
  26      -0.000000
  27       0.000000
  28       0.000000
  29      -0.021908
  30       0.001077
  31      -0.000000
  32      -0.000000
  33       0.020914
  34      -0.001028
  35       0.000000
  36      -0.000000
  37       0.016966
  38      -0.000834
  39       0.000000
  40       0.000000
  41      -0.017233
  42       0.000847
  43      -0.000000
  44       0.000000
  45      -0.229089
  46       0.011257
  47      -0.000000
  48      -0.000000
  49      -0.000000
  50      -0.000000
  51      -0.000000
  52       0.038348
  53      -0.001884
Ene=     5.99074E-01
Spin= Alpha
Occup=  0.0000
   1       0.000000
   2      -0.000000
   3      -0.000000
   4      -0.000000
   5      -0.000577
   6      -0.011744
   7      -0.000000
   8       0.000000
   9       0.000000
  10      -0.011188
  11      -0.227683
  12       0.000000
  13       0.000000
  14      -0.049070
  15      -0.998612
  16       0.000000
  17      -0.000000
  18       0.079398
  19       1.615812
  20      -0.000000
  21      -0.000000
  22      -0.024132
  23      -0.491111
  24      -0.000000
  25      -0.000000
  26      -0.000000
  27       0.000000
  28       0.000000
  29      -0.001077
  30      -0.021908
  31      -0.000000
  32      -0.000000
  33       0.001028
  34       0.020914
  35      -0.000000
  36       0.000000
  37       0.000834
  38       0.016966
  39       0.000000
  40       0.000000
  41      -0.000847
  42      -0.017233
  43      -0.000000
  44       0.000000
  45      -0.011257
  46      -0.229089
  47      -0.000000
  48      -0.000000
  49      -0.000000
  50      -0.000000
  51       0.000000
  52       0.001884
  53       0.038348
Ene=     6.50577E-01
Spin= Alpha
Occup=  0.0000
   1      -0.007858
   2       2.051817
   3       2.441741
   4      -3.414226
   5       0.000000
   6      -0.000000
   7       0.164614
   8      -0.024954
   9      -0.036887
  10      -0.000000
  11      -0.000000
  12      -0.104908
  13       0.312861
  14      -0.000000
  15      -0.000000
  16      -0.477469
  17       1.646720
  18       0.000000
  19       0.000000
  20       6.707383
  21       6.422791
  22      -0.000000
  23      -0.000000
  24      -0.946794
  25       0.103336
  26       0.103336
  27      -0.197556
  28      -0.000000
  29      -0.000000
  30       0.000000
  31       0.015008
  32       0.037209
  33       0.000000
  34       0.000000
  35       0.023556
  36       0.113021
  37       0.000000
  38       0.000000
  39      -0.145385
  40      -4.467584
  41       0.000000
  42      -0.000000
  43       1.176359
  44      -4.903064
  45      -0.000000
  46      -0.000000
  47       1.607260
  48       0.051481
  49       0.051481
  50       0.086874
  51      -0.000000
  52      -0.000000
  53       0.000000
Ene=     8.01045E-01
Spin= Alpha
Occup=  0.0000
   1       0.058014
   2       0.301052
   3      -2.111714
   4      -1.129999
   5      -0.000000
   6       0.000000
   7      -0.052012
   8       0.092669
   9       0.115898
  10       0.000000
  11      -0.000000
  12      -0.015933
  13      -1.769098
  14       0.000000
  15      -0.000000
  16      -0.227298
  17       2.604932
  18      -0.000000
  19      -0.000000
  20      -0.665375
  21       2.219742
  22       0.000000
  23       0.000000
  24      -1.392152
  25      -0.323453
  26      -0.323453
  27      -0.274167
  28       0.000000
  29      -0.000000
  30      -0.000000
  31      -0.022163
  32      -0.038370
  33      -0.000000
  34      -0.000000
  35       0.017420
  36       0.036283
  37       0.000000
  38      -0.000000
  39       0.160745
  40       1.011908
  41       0.000000
  42       0.000000
  43      -1.696182
  44      -1.003081
  45      -0.000000
  46      -0.000000
  47       1.744761
  48       0.015855
  49       0.015855
  50      -0.019915
  51       0.000000
  52      -0.000000
  53      -0.000000
Ene=     8.52256E-01
Spin= Alpha
Occup=  0.0000
   1       0.031800
   2       1.986300
   3       0.635932
   4       0.069066
   5       0.000000
   6      -0.000000
   7       0.022986
   8       0.031395
   9       0.036839
  10       0.000000
  11       0.000000
  12       0.148910
  13      -0.430233
  14      -0.000000
  15       0.000000
  16       0.916817
  17       8.672447
  18      -0.000000
  19      -0.000000
  20       5.901641
  21       3.690335
  22       0.000000
  23       0.000000
  24       1.179496
  25      -0.085375
  26      -0.085375
  27      -0.172437
  28      -0.000000
  29      -0.000000
  30       0.000000
  31       0.043373
  32       0.079332
  33      -0.000000
  34      -0.000000
  35      -0.023324
  36      -0.050660
  37      -0.000000
  38      -0.000000
  39      -0.256319
  40      -6.570359
  41       0.000000
  42       0.000000
  43       4.158490
  44      -7.533720
  45      -0.000000
  46      -0.000000
  47       1.174557
  48       0.024006
  49       0.024006
  50       0.010136
  51      -0.000000
  52      -0.000000
  53       0.000000
Ene=     9.51649E-01
Spin= Alpha